Ignoring PCI device with non-16bit domain.
Pass --enable-32bits-pci-domain to configure to support such devices
(warning: it would break the library ABI, don't enable unless really needed).

     Program PWSCF v.7.1 starts on 23Jun2023 at 14:39:34 

     This program is part of the open-source Quantum ESPRESSO suite
     for quantum simulation of materials; please cite
         "P. Giannozzi et al., J. Phys.:Condens. Matter 21 395502 (2009);
         "P. Giannozzi et al., J. Phys.:Condens. Matter 29 465901 (2017);
         "P. Giannozzi et al., J. Chem. Phys. 152 154105 (2020);
          URL http://www.quantum-espresso.org", 
     in publications or presentations arising from this work. More details at
     http://www.quantum-espresso.org/quote

     Parallel version (MPI), running on    24 processors

     MPI processes distributed on     1 nodes
     12335 MiB available memory on the printing compute node when the environment starts

     Reading input from Ni_cubic_bcc_atoms.in

     Current dimensions of program PWSCF are:
     Max number of different atomic species (ntypx) = 10
     Max number of k-points (npk) =  40000
     Max angular momentum in pseudopotentials (lmaxx) =  4
     Found identity + (  0.0000 -0.0000 -0.5000) symmetry
     This is a supercell, fractional translations are disabled

     R & G space division:  proc/nbgrp/npool/nimage =      24
     Subspace diagonalization in iterative solution of the eigenvalue problem:
     a serial algorithm will be used


     Parallelization info
     --------------------
     sticks:   dense  smooth     PW     G-vecs:    dense   smooth      PW
     Min          32      16      5                 1154      408      80
     Max          33      17      6                 1163      413      88
     Sum         785     395    137                27793     9843    1983

     Using Slab Decomposition



     bravais-lattice index     =            0
     lattice parameter (alat)  =       4.6716  a.u.
     unit-cell volume          =     156.9662 (a.u.)^3
     number of atoms/cell      =            2
     number of atomic types    =            1
     number of electrons       =        36.00
     number of Kohn-Sham states=           22
     kinetic-energy cutoff     =      60.0000  Ry
     charge density cutoff     =     480.0000  Ry
     scf convergence threshold =      1.0E-06
     mixing beta               =       0.7000
     number of iterations used =            8  TF        mixing
     energy convergence thresh.=      1.0E-05
     force convergence thresh. =      1.0E-04
     press convergence thresh. =      5.0E-01
     Exchange-correlation= PBE
                           (   1   4   3   4   0   0   0)
     nstep                     =           50


     celldm(1)=   4.671592  celldm(2)=   0.000000  celldm(3)=   0.000000
     celldm(4)=   0.000000  celldm(5)=   0.000000  celldm(6)=   0.000000

     crystal axes: (cart. coord. in units of alat)
               a(1) = (   1.000000   0.000000   0.000000 )  
               a(2) = (  -0.333330   0.942810   0.000000 )  
               a(3) = (  -0.666659  -0.942795   1.633004 )  

     reciprocal axes: (cart. coord. in units 2 pi/alat)
               b(1) = (  1.000000  0.353549  0.612358 )  
               b(2) = ( -0.000000  1.060659  0.612358 )  
               b(3) = (  0.000000 -0.000000  0.612368 )  


     PseudoPot. # 1 for Ni read from file:
     /home/jmgoff/work/automation/qe_pseudos/Ni.upf
     MD5 check sum: caf20d35bef94d268ef04de15446df97
     Pseudo is Ultrasoft + core correction, Zval = 18.0
     Generated using 'atomic' code by A. Dal Corso  v.7.1
     Using radial grid of 1195 points,  6 beta functions with: 
                l(1) =   0
                l(2) =   0
                l(3) =   1
                l(4) =   1
                l(5) =   2
                l(6) =   2
     Q(r) pseudized with 0 coefficients 


     atomic species   valence    mass     pseudopotential
        Ni            18.00    58.69340     Ni( 1.00)

     Starting magnetic structure 
     atomic species   magnetization
        Ni           1.000

     No symmetry found



   Cartesian axes

     site n.     atom                  positions (alat units)
         1           Ni  tau(   1) = (   0.0000000   0.0000000   0.0000000  )
         2           Ni  tau(   2) = (  -0.3333297  -0.4713975   0.8165021  )

     number of k points=   163  Marzari-Vanderbilt smearing, width (Ry)=  0.0100

     Number of k-points >= 100: set verbosity='high' to print them.

     Dense  grid:    27793 G-vectors     FFT dimensions: (  36,  36,  72)

     Smooth grid:     9843 G-vectors     FFT dimensions: (  24,  24,  48)

     Estimated max dynamical RAM per process >      13.98 MB

     Estimated total dynamical RAM >     335.61 MB

     Check: negative core charge=   -0.000001
     Generating pointlists ...
     new r_m :   0.4125 (alat units)  1.9270 (a.u.) for type    1

     Initial potential from superposition of free atoms

     starting charge      35.9995, renormalised to      36.0000
     Starting wfcs are   20 randomized atomic wfcs +    2 random wfcs

     total cpu time spent up to now is        1.0 secs

     Self-consistent Calculation

     iteration #  1     ecut=    60.00 Ry     beta= 0.70
     Davidson diagonalization with overlap
     ethr =  1.00E-02,  avg # of iterations =  5.5

     total cpu time spent up to now is        5.5 secs

     total energy              =    -673.63344857 Ry
     estimated scf accuracy    <      17.32149854 Ry

     total magnetization       =     8.00 Bohr mag/cell
     absolute magnetization    =     9.61 Bohr mag/cell

     iteration #  2     ecut=    60.00 Ry     beta= 0.70
     Davidson diagonalization with overlap
     ethr =  1.00E-02,  avg # of iterations =  3.1

     total cpu time spent up to now is        9.1 secs

     total energy              =    -677.42937689 Ry
     estimated scf accuracy    <      11.68502247 Ry

     total magnetization       =     1.42 Bohr mag/cell
     absolute magnetization    =     2.45 Bohr mag/cell

     iteration #  3     ecut=    60.00 Ry     beta= 0.70
     Davidson diagonalization with overlap
     ethr =  1.00E-02,  avg # of iterations =  2.0

     negative rho (up, down):  0.000E+00 9.776E-04

     total cpu time spent up to now is       12.2 secs

     total energy              =    -679.27264702 Ry
     estimated scf accuracy    <       1.48754793 Ry

     total magnetization       =     3.00 Bohr mag/cell
     absolute magnetization    =     3.95 Bohr mag/cell

     iteration #  4     ecut=    60.00 Ry     beta= 0.70
     Davidson diagonalization with overlap
     ethr =  4.13E-03,  avg # of iterations =  3.0

     total cpu time spent up to now is       15.8 secs

     total energy              =    -670.59130261 Ry
     estimated scf accuracy    <     521.38767032 Ry

     total magnetization       =     1.52 Bohr mag/cell
     absolute magnetization    =    45.79 Bohr mag/cell

     iteration #  5     ecut=    60.00 Ry     beta= 0.70
     Davidson diagonalization with overlap
     ethr =  4.13E-03,  avg # of iterations =  2.9

     total cpu time spent up to now is       19.3 secs

     total energy              =    -679.29496337 Ry
     estimated scf accuracy    <       3.27583485 Ry

     total magnetization       =     1.68 Bohr mag/cell
     absolute magnetization    =     3.96 Bohr mag/cell

     iteration #  6     ecut=    60.00 Ry     beta= 0.70
     Davidson diagonalization with overlap
     ethr =  4.13E-03,  avg # of iterations =  2.0

     total cpu time spent up to now is       22.2 secs

     total energy              =    -678.69650841 Ry
     estimated scf accuracy    <      32.69328736 Ry

     total magnetization       =     1.41 Bohr mag/cell
     absolute magnetization    =    11.94 Bohr mag/cell

     iteration #  7     ecut=    60.00 Ry     beta= 0.70
     Davidson diagonalization with overlap
     ethr =  4.13E-03,  avg # of iterations =  2.0

     total cpu time spent up to now is       25.1 secs

     total energy              =    -679.10412795 Ry
     estimated scf accuracy    <       3.46715234 Ry

     total magnetization       =     1.51 Bohr mag/cell
     absolute magnetization    =     2.15 Bohr mag/cell

     iteration #  8     ecut=    60.00 Ry     beta= 0.70
     Davidson diagonalization with overlap
     ethr =  4.13E-03,  avg # of iterations =  2.0

     total cpu time spent up to now is       28.0 secs

     total energy              =    -679.24445477 Ry
     estimated scf accuracy    <       4.44905327 Ry

     total magnetization       =     1.27 Bohr mag/cell
     absolute magnetization    =     4.45 Bohr mag/cell

     iteration #  9     ecut=    60.00 Ry     beta= 0.70
     Davidson diagonalization with overlap
     ethr =  4.13E-03,  avg # of iterations =  1.0

     total cpu time spent up to now is       30.2 secs

     total energy              =    -679.10521603 Ry
     estimated scf accuracy    <       5.51920884 Ry

     total magnetization       =     1.25 Bohr mag/cell
     absolute magnetization    =     4.89 Bohr mag/cell

     iteration # 10     ecut=    60.00 Ry     beta= 0.70
     Davidson diagonalization with overlap
     ethr =  4.13E-03,  avg # of iterations =  1.9

     total cpu time spent up to now is       32.9 secs

     total energy              =    -679.16089635 Ry
     estimated scf accuracy    <       1.14165973 Ry

     total magnetization       =     1.26 Bohr mag/cell
     absolute magnetization    =     2.74 Bohr mag/cell

     iteration # 11     ecut=    60.00 Ry     beta= 0.70
     Davidson diagonalization with overlap
     ethr =  3.17E-03,  avg # of iterations =  1.8

     total cpu time spent up to now is       35.4 secs

     total energy              =    -679.14546732 Ry
     estimated scf accuracy    <       2.60905266 Ry

     total magnetization       =     1.25 Bohr mag/cell
     absolute magnetization    =     3.41 Bohr mag/cell

     iteration # 12     ecut=    60.00 Ry     beta= 0.70
     Davidson diagonalization with overlap
     ethr =  3.17E-03,  avg # of iterations =  1.2

     total cpu time spent up to now is       37.8 secs

     total energy              =    -679.16960134 Ry
     estimated scf accuracy    <       0.16499874 Ry

     total magnetization       =     1.26 Bohr mag/cell
     absolute magnetization    =     1.66 Bohr mag/cell

     iteration # 13     ecut=    60.00 Ry     beta= 0.70
     Davidson diagonalization with overlap
     ethr =  4.58E-04,  avg # of iterations =  1.2

     total cpu time spent up to now is       40.3 secs

     total energy              =    -679.17491600 Ry
     estimated scf accuracy    <       0.02819682 Ry

     total magnetization       =     1.26 Bohr mag/cell
     absolute magnetization    =     1.52 Bohr mag/cell

     iteration # 14     ecut=    60.00 Ry     beta= 0.70
     Davidson diagonalization with overlap
     ethr =  7.83E-05,  avg # of iterations =  2.3

     total cpu time spent up to now is       43.3 secs

     total energy              =    -679.17444985 Ry
     estimated scf accuracy    <       0.61654578 Ry

     total magnetization       =     1.25 Bohr mag/cell
     absolute magnetization    =     2.25 Bohr mag/cell

     iteration # 15     ecut=    60.00 Ry     beta= 0.70
     Davidson diagonalization with overlap
     ethr =  7.83E-05,  avg # of iterations =  2.0

     total cpu time spent up to now is       46.2 secs

     total energy              =    -679.17250049 Ry
     estimated scf accuracy    <       0.15138054 Ry

     total magnetization       =     1.25 Bohr mag/cell
     absolute magnetization    =     1.67 Bohr mag/cell

     iteration # 16     ecut=    60.00 Ry     beta= 0.70
     Davidson diagonalization with overlap
     ethr =  7.83E-05,  avg # of iterations =  2.0

     total cpu time spent up to now is       49.2 secs

     total energy              =    -679.13886862 Ry
     estimated scf accuracy    <       2.10069750 Ry

     total magnetization       =     1.24 Bohr mag/cell
     absolute magnetization    =     3.35 Bohr mag/cell

     iteration # 17     ecut=    60.00 Ry     beta= 0.70
     Davidson diagonalization with overlap
     ethr =  7.83E-05,  avg # of iterations =  2.1

     total cpu time spent up to now is       52.3 secs

     total energy              =    -679.17365593 Ry
     estimated scf accuracy    <       0.02759823 Ry

     total magnetization       =     1.25 Bohr mag/cell
     absolute magnetization    =     1.47 Bohr mag/cell

     iteration # 18     ecut=    60.00 Ry     beta= 0.70
     Davidson diagonalization with overlap
     ethr =  7.67E-05,  avg # of iterations =  2.0

     total cpu time spent up to now is       55.3 secs

     total energy              =    -679.18436024 Ry
     estimated scf accuracy    <       0.39223706 Ry

     total magnetization       =     1.25 Bohr mag/cell
     absolute magnetization    =     1.92 Bohr mag/cell

     iteration # 19     ecut=    60.00 Ry     beta= 0.70
     Davidson diagonalization with overlap
     ethr =  7.67E-05,  avg # of iterations =  2.0

     total cpu time spent up to now is       58.0 secs

     total energy              =    -679.16723465 Ry
     estimated scf accuracy    <       0.69074390 Ry

     total magnetization       =     1.25 Bohr mag/cell
     absolute magnetization    =     2.28 Bohr mag/cell

     iteration # 20     ecut=    60.00 Ry     beta= 0.70
     Davidson diagonalization with overlap
     ethr =  7.67E-05,  avg # of iterations =  2.0

     total cpu time spent up to now is       61.0 secs

     total energy              =    -679.16992506 Ry
     estimated scf accuracy    <       0.32807461 Ry

     total magnetization       =     1.25 Bohr mag/cell
     absolute magnetization    =     1.92 Bohr mag/cell

     iteration # 21     ecut=    60.00 Ry     beta= 0.70
     Davidson diagonalization with overlap
     ethr =  7.67E-05,  avg # of iterations =  2.0

     total cpu time spent up to now is       63.9 secs

     total energy              =    -679.17805029 Ry
     estimated scf accuracy    <       0.05155064 Ry

     total magnetization       =     1.25 Bohr mag/cell
     absolute magnetization    =     1.56 Bohr mag/cell

     iteration # 22     ecut=    60.00 Ry     beta= 0.70
     Davidson diagonalization with overlap
     ethr =  7.67E-05,  avg # of iterations =  1.8

     total cpu time spent up to now is       66.6 secs

     total energy              =    -679.18205654 Ry
     estimated scf accuracy    <       0.27162359 Ry

     total magnetization       =     1.25 Bohr mag/cell
     absolute magnetization    =     1.86 Bohr mag/cell

     iteration # 23     ecut=    60.00 Ry     beta= 0.70
     Davidson diagonalization with overlap
     ethr =  7.67E-05,  avg # of iterations =  2.0

     total cpu time spent up to now is       69.7 secs

     total energy              =    -679.16362386 Ry
     estimated scf accuracy    <       1.79344042 Ry

     total magnetization       =     1.25 Bohr mag/cell
     absolute magnetization    =     3.17 Bohr mag/cell

     iteration # 24     ecut=    60.00 Ry     beta= 0.70
     Davidson diagonalization with overlap
     ethr =  7.67E-05,  avg # of iterations =  2.0

     total cpu time spent up to now is       72.7 secs

     total energy              =    -679.18625854 Ry
     estimated scf accuracy    <       0.75505005 Ry

     total magnetization       =     1.25 Bohr mag/cell
     absolute magnetization    =     2.30 Bohr mag/cell

     iteration # 25     ecut=    60.00 Ry     beta= 0.70
     Davidson diagonalization with overlap
     ethr =  7.67E-05,  avg # of iterations =  1.2

     total cpu time spent up to now is       75.1 secs

     total energy              =    -679.17353445 Ry
     estimated scf accuracy    <       0.86105412 Ry

     total magnetization       =     1.25 Bohr mag/cell
     absolute magnetization    =     2.41 Bohr mag/cell

     iteration # 26     ecut=    60.00 Ry     beta= 0.70
     Davidson diagonalization with overlap
     ethr =  7.67E-05,  avg # of iterations =  2.0

     total cpu time spent up to now is       78.0 secs

     total energy              =    -679.17356149 Ry
     estimated scf accuracy    <       0.64220455 Ry

     total magnetization       =     1.25 Bohr mag/cell
     absolute magnetization    =     2.30 Bohr mag/cell

     iteration # 27     ecut=    60.00 Ry     beta= 0.70
     Davidson diagonalization with overlap
     ethr =  7.67E-05,  avg # of iterations =  2.0

     total cpu time spent up to now is       80.9 secs

     total energy              =    -679.17199292 Ry
     estimated scf accuracy    <       0.28642208 Ry

     total magnetization       =     1.25 Bohr mag/cell
     absolute magnetization    =     1.84 Bohr mag/cell

     iteration # 28     ecut=    60.00 Ry     beta= 0.70
     Davidson diagonalization with overlap
     ethr =  7.67E-05,  avg # of iterations =  2.0

     total cpu time spent up to now is       83.9 secs

     total energy              =    -679.17334538 Ry
     estimated scf accuracy    <       0.18855339 Ry

     total magnetization       =     1.25 Bohr mag/cell
     absolute magnetization    =     1.78 Bohr mag/cell

     iteration # 29     ecut=    60.00 Ry     beta= 0.70
     Davidson diagonalization with overlap
     ethr =  7.67E-05,  avg # of iterations =  2.0

     total cpu time spent up to now is       86.9 secs

     total energy              =    -679.17376331 Ry
     estimated scf accuracy    <       0.30641464 Ry

     total magnetization       =     1.25 Bohr mag/cell
     absolute magnetization    =     1.98 Bohr mag/cell

     iteration # 30     ecut=    60.00 Ry     beta= 0.70
     Davidson diagonalization with overlap
     ethr =  7.67E-05,  avg # of iterations =  2.1

     total cpu time spent up to now is       90.0 secs

     total energy              =    -679.15715694 Ry
     estimated scf accuracy    <       2.80461944 Ry

     total magnetization       =     1.24 Bohr mag/cell
     absolute magnetization    =     3.83 Bohr mag/cell

     iteration # 31     ecut=    60.00 Ry     beta= 0.70
     Davidson diagonalization with overlap
     ethr =  7.67E-05,  avg # of iterations =  2.5

     total cpu time spent up to now is       93.3 secs

     total energy              =    -679.35356845 Ry
     estimated scf accuracy    <       3.28912256 Ry

     total magnetization       =     1.24 Bohr mag/cell
     absolute magnetization    =     3.73 Bohr mag/cell

     iteration # 32     ecut=    60.00 Ry     beta= 0.70
     Davidson diagonalization with overlap
     ethr =  7.67E-05,  avg # of iterations =  4.2

     total cpu time spent up to now is       97.5 secs

     total energy              =    -678.10613995 Ry
     estimated scf accuracy    <      72.28707430 Ry

     total magnetization       =     1.12 Bohr mag/cell
     absolute magnetization    =    14.50 Bohr mag/cell

     iteration # 33     ecut=    60.00 Ry     beta= 0.70
     Davidson diagonalization with overlap
     ethr =  7.67E-05,  avg # of iterations =  4.1

     total cpu time spent up to now is      101.8 secs

     total energy              =    -679.21371280 Ry
     estimated scf accuracy    <       2.99581342 Ry

     total magnetization       =     1.24 Bohr mag/cell
     absolute magnetization    =     3.81 Bohr mag/cell

     iteration # 34     ecut=    60.00 Ry     beta= 0.70
     Davidson diagonalization with overlap
     ethr =  7.67E-05,  avg # of iterations =  2.0

     total cpu time spent up to now is      104.7 secs

     total energy              =    -679.21111209 Ry
     estimated scf accuracy    <       3.11245358 Ry

     total magnetization       =     1.24 Bohr mag/cell
     absolute magnetization    =     3.82 Bohr mag/cell

     iteration # 35     ecut=    60.00 Ry     beta= 0.70
     Davidson diagonalization with overlap
     ethr =  7.67E-05,  avg # of iterations =  2.0

     total cpu time spent up to now is      107.7 secs

     total energy              =    -679.22424886 Ry
     estimated scf accuracy    <       3.24355851 Ry

     total magnetization       =     1.24 Bohr mag/cell
     absolute magnetization    =     3.95 Bohr mag/cell

     iteration # 36     ecut=    60.00 Ry     beta= 0.70
     Davidson diagonalization with overlap
     ethr =  7.67E-05,  avg # of iterations =  1.8

     total cpu time spent up to now is      110.3 secs

     total energy              =    -679.22486763 Ry
     estimated scf accuracy    <       3.33914304 Ry

     total magnetization       =     1.24 Bohr mag/cell
     absolute magnetization    =     4.00 Bohr mag/cell

     iteration # 37     ecut=    60.00 Ry     beta= 0.70
     Davidson diagonalization with overlap
     ethr =  7.67E-05,  avg # of iterations =  1.0

     total cpu time spent up to now is      112.6 secs

     total energy              =    -679.25799212 Ry
     estimated scf accuracy    <       3.31916086 Ry

     total magnetization       =     1.24 Bohr mag/cell
     absolute magnetization    =     3.99 Bohr mag/cell

     iteration # 38     ecut=    60.00 Ry     beta= 0.70
     Davidson diagonalization with overlap
     ethr =  7.67E-05,  avg # of iterations =  4.4

     total cpu time spent up to now is      117.0 secs

     total energy              =    -678.98510482 Ry
     estimated scf accuracy    <      85.47290638 Ry

     total magnetization       =     1.09 Bohr mag/cell
     absolute magnetization    =    17.98 Bohr mag/cell

     iteration # 39     ecut=    60.00 Ry     beta= 0.70
     Davidson diagonalization with overlap
     ethr =  7.67E-05,  avg # of iterations =  4.7

     negative rho (up, down):  0.000E+00 3.199E-04

     total cpu time spent up to now is      121.9 secs

     total energy              =    -678.53334814 Ry
     estimated scf accuracy    <     166.25746001 Ry

     total magnetization       =     0.86 Bohr mag/cell
     absolute magnetization    =    22.35 Bohr mag/cell

     iteration # 40     ecut=    60.00 Ry     beta= 0.70
     Davidson diagonalization with overlap
     ethr =  7.67E-05,  avg # of iterations =  4.5

     negative rho (up, down):  1.311E-04 6.075E-03

     total cpu time spent up to now is      126.6 secs

     total energy              =    -680.80229253 Ry
     estimated scf accuracy    <      91.03713544 Ry

     total magnetization       =     1.04 Bohr mag/cell
     absolute magnetization    =    18.47 Bohr mag/cell

     iteration # 41     ecut=    60.00 Ry     beta= 0.70
     Davidson diagonalization with overlap
     ethr =  7.67E-05,  avg # of iterations =  4.1

     negative rho (up, down):  8.578E-04 3.115E-03

     total cpu time spent up to now is      131.3 secs

     total energy              =    -681.93768826 Ry
     estimated scf accuracy    <     162.07908180 Ry

     total magnetization       =     0.84 Bohr mag/cell
     absolute magnetization    =    25.28 Bohr mag/cell

     iteration # 42     ecut=    60.00 Ry     beta= 0.70
     Davidson diagonalization with overlap
     ethr =  7.67E-05,  avg # of iterations =  3.8

     negative rho (up, down):  2.768E-04 7.354E-03

     total cpu time spent up to now is      135.6 secs

     total energy              =    -679.77646918 Ry
     estimated scf accuracy    <     247.75613773 Ry

     total magnetization       =     0.54 Bohr mag/cell
     absolute magnetization    =    31.07 Bohr mag/cell

     iteration # 43     ecut=    60.00 Ry     beta= 0.70
     Davidson diagonalization with overlap
     ethr =  7.67E-05,  avg # of iterations =  4.2

     negative rho (up, down):  4.599E-05 1.139E-02

     total cpu time spent up to now is      140.3 secs

     total energy              =    -681.02355095 Ry
     estimated scf accuracy    <     162.98952534 Ry

     total magnetization       =     0.89 Bohr mag/cell
     absolute magnetization    =    25.53 Bohr mag/cell

     iteration # 44     ecut=    60.00 Ry     beta= 0.70
     Davidson diagonalization with overlap
     ethr =  7.67E-05,  avg # of iterations =  3.2

     negative rho (up, down):  8.861E-04 2.606E-03

     total cpu time spent up to now is      144.3 secs

     total energy              =    -682.01782080 Ry
     estimated scf accuracy    <     183.08397062 Ry

     total magnetization       =     0.88 Bohr mag/cell
     absolute magnetization    =    25.99 Bohr mag/cell

     iteration # 45     ecut=    60.00 Ry     beta= 0.70
     Davidson diagonalization with overlap
     ethr =  7.67E-05,  avg # of iterations =  4.0

     negative rho (up, down):  0.000E+00 5.260E-03

     total cpu time spent up to now is      149.0 secs

     total energy              =    -680.58696134 Ry
     estimated scf accuracy    <     280.31506447 Ry

     total magnetization       =     0.63 Bohr mag/cell
     absolute magnetization    =    33.36 Bohr mag/cell

     iteration # 46     ecut=    60.00 Ry     beta= 0.70
     Davidson diagonalization with overlap
     ethr =  7.67E-05,  avg # of iterations =  3.6

     negative rho (up, down):  1.811E-01 3.222E-01

     total cpu time spent up to now is      153.2 secs

     total energy              =    -694.07992008 Ry
     estimated scf accuracy    <     175.48785560 Ry

     total magnetization       =     0.70 Bohr mag/cell
     absolute magnetization    =    26.27 Bohr mag/cell

     iteration # 47     ecut=    60.00 Ry     beta= 0.70
     Davidson diagonalization with overlap
     c_bands:  1 eigenvalues not converged
     ethr =  7.67E-05,  avg # of iterations = 10.5

     negative rho (up, down):  7.571E-01 1.884E-01

     total cpu time spent up to now is      163.1 secs

     total energy              =    -714.17544002 Ry
     estimated scf accuracy    <    2068.65292304 Ry

     total magnetization       =    -0.01 Bohr mag/cell
     absolute magnetization    =    90.70 Bohr mag/cell

     iteration # 48     ecut=    60.00 Ry     beta= 0.70
     Davidson diagonalization with overlap
     c_bands:  1 eigenvalues not converged
     c_bands:  1 eigenvalues not converged
     c_bands:  1 eigenvalues not converged
     ethr =  7.67E-05,  avg # of iterations = 10.8

     negative rho (up, down):  9.827E-01 1.643E-01

     total cpu time spent up to now is      172.4 secs

     total energy              =    -766.14324866 Ry
     estimated scf accuracy    <    2349.13263113 Ry

     total magnetization       =     0.14 Bohr mag/cell
     absolute magnetization    =    87.26 Bohr mag/cell

     iteration # 49     ecut=    60.00 Ry     beta= 0.70
     Davidson diagonalization with overlap
     ethr =  7.67E-05,  avg # of iterations =  9.1

     negative rho (up, down):  1.418E+00 4.734E-01

     total cpu time spent up to now is      180.5 secs

     total energy              =    -793.31928455 Ry
     estimated scf accuracy    <    2399.05280045 Ry

     total magnetization       =    -0.25 Bohr mag/cell
     absolute magnetization    =    70.62 Bohr mag/cell

     iteration # 50     ecut=    60.00 Ry     beta= 0.70
     Davidson diagonalization with overlap
     c_bands:  1 eigenvalues not converged
     c_bands:  1 eigenvalues not converged
     c_bands:  1 eigenvalues not converged
     c_bands:  1 eigenvalues not converged
     c_bands:  1 eigenvalues not converged
     ethr =  7.67E-05,  avg # of iterations = 11.5

     negative rho (up, down):  1.456E+00 3.400E-01

     total cpu time spent up to now is      191.1 secs

     total energy              =    -791.16275424 Ry
     estimated scf accuracy    <    2723.55771403 Ry

     total magnetization       =    -0.40 Bohr mag/cell
     absolute magnetization    =    77.84 Bohr mag/cell

     iteration # 51     ecut=    60.00 Ry     beta= 0.70
     Davidson diagonalization with overlap
     c_bands:  1 eigenvalues not converged
     ethr =  7.67E-05,  avg # of iterations =  9.8

     negative rho (up, down):  1.424E+00 5.561E-01

     total cpu time spent up to now is      200.2 secs

     total energy              =    -802.02441821 Ry
     estimated scf accuracy    <    2627.55099623 Ry

     total magnetization       =     0.10 Bohr mag/cell
     absolute magnetization    =    71.20 Bohr mag/cell

     iteration # 52     ecut=    60.00 Ry     beta= 0.70
     Davidson diagonalization with overlap
     c_bands:  1 eigenvalues not converged
     ethr =  7.67E-05,  avg # of iterations =  8.5

     negative rho (up, down):  9.355E-01 1.473E+00

     total cpu time spent up to now is      208.3 secs

     total energy              =    -831.38422794 Ry
     estimated scf accuracy    <    2751.45061270 Ry

     total magnetization       =    -0.44 Bohr mag/cell
     absolute magnetization    =    81.05 Bohr mag/cell

     iteration # 53     ecut=    60.00 Ry     beta= 0.70
     Davidson diagonalization with overlap
     c_bands:  1 eigenvalues not converged
     ethr =  7.67E-05,  avg # of iterations = 10.3

     negative rho (up, down):  7.934E-01 9.681E-01

     total cpu time spent up to now is      217.6 secs

     total energy              =    -648.91987022 Ry
     estimated scf accuracy    <    3302.18646917 Ry

     total magnetization       =     0.35 Bohr mag/cell
     absolute magnetization    =    59.45 Bohr mag/cell

     iteration # 54     ecut=    60.00 Ry     beta= 0.70
     Davidson diagonalization with overlap
     c_bands:  1 eigenvalues not converged
     c_bands:  1 eigenvalues not converged
     c_bands:  1 eigenvalues not converged
     c_bands:  1 eigenvalues not converged
     c_bands:  1 eigenvalues not converged
     c_bands:  1 eigenvalues not converged
     c_bands:  1 eigenvalues not converged
     c_bands:  1 eigenvalues not converged
     ethr =  7.67E-05,  avg # of iterations = 11.6

     negative rho (up, down):  1.111E+00 1.159E+00

     total cpu time spent up to now is      227.7 secs

     total energy              =    -766.40227101 Ry
     estimated scf accuracy    <    2835.50645771 Ry

     total magnetization       =     0.19 Bohr mag/cell
     absolute magnetization    =    69.34 Bohr mag/cell

     iteration # 55     ecut=    60.00 Ry     beta= 0.70
     Davidson diagonalization with overlap
     ethr =  7.67E-05,  avg # of iterations =  9.4

     negative rho (up, down):  3.684E+00 2.830E+00

     total cpu time spent up to now is      236.5 secs

     total energy              =    -906.48344834 Ry
     estimated scf accuracy    <    2371.59679242 Ry

     total magnetization       =     0.41 Bohr mag/cell
     absolute magnetization    =    90.16 Bohr mag/cell

     iteration # 56     ecut=    60.00 Ry     beta= 0.70
     Davidson diagonalization with overlap
     c_bands:  1 eigenvalues not converged
     c_bands:  1 eigenvalues not converged
     c_bands:  1 eigenvalues not converged
     c_bands:  2 eigenvalues not converged
     c_bands:  1 eigenvalues not converged
     c_bands:  1 eigenvalues not converged
     c_bands:  1 eigenvalues not converged
     c_bands:  1 eigenvalues not converged
     c_bands:  1 eigenvalues not converged
     c_bands:  1 eigenvalues not converged
     c_bands:  1 eigenvalues not converged
     c_bands:  1 eigenvalues not converged
     c_bands:  1 eigenvalues not converged
     c_bands:  1 eigenvalues not converged
     c_bands:  1 eigenvalues not converged
     c_bands:  1 eigenvalues not converged
     c_bands:  1 eigenvalues not converged
     c_bands:  1 eigenvalues not converged
     c_bands:  1 eigenvalues not converged
     c_bands:  1 eigenvalues not converged
     c_bands:  2 eigenvalues not converged
     c_bands:  1 eigenvalues not converged
     c_bands:  1 eigenvalues not converged
     c_bands:  1 eigenvalues not converged
     c_bands:  1 eigenvalues not converged
     c_bands:  1 eigenvalues not converged
     c_bands:  1 eigenvalues not converged
     c_bands:  1 eigenvalues not converged
     c_bands:  1 eigenvalues not converged
     c_bands:  1 eigenvalues not converged
     c_bands:  1 eigenvalues not converged
     c_bands:  1 eigenvalues not converged
     c_bands:  1 eigenvalues not converged
     c_bands:  1 eigenvalues not converged
     c_bands:  1 eigenvalues not converged
     c_bands:  1 eigenvalues not converged
     c_bands:  1 eigenvalues not converged
     c_bands:  1 eigenvalues not converged
     c_bands:  1 eigenvalues not converged
     c_bands:  1 eigenvalues not converged
     c_bands:  1 eigenvalues not converged
     c_bands:  1 eigenvalues not converged
     c_bands:  1 eigenvalues not converged
     c_bands:  1 eigenvalues not converged
     c_bands:  1 eigenvalues not converged
     c_bands:  1 eigenvalues not converged
     c_bands:  1 eigenvalues not converged
     c_bands:  1 eigenvalues not converged
     c_bands:  1 eigenvalues not converged
     c_bands:  1 eigenvalues not converged
     c_bands:  1 eigenvalues not converged
     c_bands:  1 eigenvalues not converged
     c_bands:  1 eigenvalues not converged
     c_bands:  1 eigenvalues not converged
     c_bands:  1 eigenvalues not converged
     c_bands:  1 eigenvalues not converged
     c_bands:  1 eigenvalues not converged
     ethr =  7.67E-05,  avg # of iterations = 16.3

     negative rho (up, down):  2.623E+00 4.377E+00

     total cpu time spent up to now is      250.2 secs

     total energy              =    -457.31224572 Ry
     estimated scf accuracy    <    3878.88409988 Ry

     total magnetization       =     0.22 Bohr mag/cell
     absolute magnetization    =    67.10 Bohr mag/cell

     iteration # 57     ecut=    60.00 Ry     beta= 0.70
     Davidson diagonalization with overlap
     c_bands:  1 eigenvalues not converged
     c_bands:  1 eigenvalues not converged
     c_bands:  1 eigenvalues not converged
     c_bands:  2 eigenvalues not converged
     c_bands:  1 eigenvalues not converged
     c_bands:  1 eigenvalues not converged
     c_bands:  1 eigenvalues not converged
     c_bands:  1 eigenvalues not converged
     c_bands:  1 eigenvalues not converged
     c_bands:  1 eigenvalues not converged
     c_bands:  1 eigenvalues not converged
     c_bands:  1 eigenvalues not converged
     c_bands:  1 eigenvalues not converged
     c_bands:  1 eigenvalues not converged
     c_bands:  1 eigenvalues not converged
     c_bands:  2 eigenvalues not converged
     c_bands:  1 eigenvalues not converged
     c_bands:  1 eigenvalues not converged
     c_bands:  1 eigenvalues not converged
     c_bands:  1 eigenvalues not converged
     c_bands:  1 eigenvalues not converged
     c_bands:  1 eigenvalues not converged
     c_bands:  1 eigenvalues not converged
     c_bands:  1 eigenvalues not converged
     c_bands:  1 eigenvalues not converged
     c_bands:  1 eigenvalues not converged
     c_bands:  1 eigenvalues not converged
     c_bands:  1 eigenvalues not converged
     c_bands:  1 eigenvalues not converged
     c_bands:  1 eigenvalues not converged
     c_bands:  1 eigenvalues not converged
     c_bands:  1 eigenvalues not converged
     c_bands:  1 eigenvalues not converged
     c_bands:  1 eigenvalues not converged
     c_bands:  1 eigenvalues not converged
     c_bands:  1 eigenvalues not converged
     c_bands:  1 eigenvalues not converged
     c_bands:  1 eigenvalues not converged
     c_bands:  1 eigenvalues not converged
     c_bands:  1 eigenvalues not converged
     c_bands:  1 eigenvalues not converged
     c_bands:  1 eigenvalues not converged
     c_bands:  1 eigenvalues not converged
     c_bands:  1 eigenvalues not converged
     c_bands:  1 eigenvalues not converged
     c_bands:  1 eigenvalues not converged
     c_bands:  1 eigenvalues not converged
     c_bands:  1 eigenvalues not converged
     c_bands:  1 eigenvalues not converged
     c_bands:  1 eigenvalues not converged
     c_bands:  1 eigenvalues not converged
     c_bands:  1 eigenvalues not converged
     c_bands:  1 eigenvalues not converged
     c_bands:  1 eigenvalues not converged
     c_bands:  1 eigenvalues not converged
     c_bands:  1 eigenvalues not converged
     c_bands:  2 eigenvalues not converged
     c_bands:  1 eigenvalues not converged
     c_bands:  2 eigenvalues not converged
     c_bands:  1 eigenvalues not converged
     c_bands:  2 eigenvalues not converged
     c_bands:  1 eigenvalues not converged
     c_bands:  1 eigenvalues not converged
     c_bands:  1 eigenvalues not converged
     c_bands:  1 eigenvalues not converged
     c_bands:  1 eigenvalues not converged
     c_bands:  1 eigenvalues not converged
     c_bands:  1 eigenvalues not converged
     c_bands:  1 eigenvalues not converged
     c_bands:  1 eigenvalues not converged
     c_bands:  1 eigenvalues not converged
     c_bands:  1 eigenvalues not converged
     c_bands:  2 eigenvalues not converged
     c_bands:  1 eigenvalues not converged
     c_bands:  1 eigenvalues not converged
     c_bands:  1 eigenvalues not converged
     c_bands:  1 eigenvalues not converged
     c_bands:  1 eigenvalues not converged
     c_bands:  1 eigenvalues not converged
     c_bands:  1 eigenvalues not converged
     c_bands:  1 eigenvalues not converged
     c_bands:  1 eigenvalues not converged
     c_bands:  2 eigenvalues not converged
     c_bands:  1 eigenvalues not converged
     c_bands:  1 eigenvalues not converged
     c_bands:  1 eigenvalues not converged
     c_bands:  1 eigenvalues not converged
     c_bands:  1 eigenvalues not converged
     c_bands:  1 eigenvalues not converged
     c_bands:  3 eigenvalues not converged
     c_bands:  1 eigenvalues not converged
     c_bands:  1 eigenvalues not converged
     c_bands:  1 eigenvalues not converged
     c_bands:  1 eigenvalues not converged
     c_bands:  1 eigenvalues not converged
     c_bands:  1 eigenvalues not converged
     c_bands:  1 eigenvalues not converged
     c_bands:  2 eigenvalues not converged
     c_bands:  1 eigenvalues not converged
     c_bands:  1 eigenvalues not converged
     c_bands:  1 eigenvalues not converged
     c_bands:  1 eigenvalues not converged
     c_bands:  1 eigenvalues not converged
     c_bands:  1 eigenvalues not converged
     c_bands:  1 eigenvalues not converged
     c_bands:  1 eigenvalues not converged
     c_bands:  1 eigenvalues not converged
     c_bands:  1 eigenvalues not converged
     c_bands:  1 eigenvalues not converged
     c_bands:  1 eigenvalues not converged
     c_bands:  1 eigenvalues not converged
     c_bands:  1 eigenvalues not converged
     c_bands:  1 eigenvalues not converged
     c_bands:  1 eigenvalues not converged
     ethr =  7.67E-05,  avg # of iterations = 18.1

     negative rho (up, down):  3.368E+00 2.362E+00

     total cpu time spent up to now is      266.3 secs

     total energy              =    -652.33928581 Ry
     estimated scf accuracy    <    3857.35960148 Ry

     total magnetization       =     0.01 Bohr mag/cell
     absolute magnetization    =    57.79 Bohr mag/cell

     iteration # 58     ecut=    60.00 Ry     beta= 0.70
     Davidson diagonalization with overlap
     c_bands:  1 eigenvalues not converged
     c_bands:  1 eigenvalues not converged
     c_bands:  1 eigenvalues not converged
     c_bands:  2 eigenvalues not converged
     c_bands:  1 eigenvalues not converged
     c_bands:  1 eigenvalues not converged
     c_bands:  1 eigenvalues not converged
     c_bands:  1 eigenvalues not converged
     c_bands:  1 eigenvalues not converged
     c_bands:  1 eigenvalues not converged
     ethr =  7.67E-05,  avg # of iterations = 13.9

     negative rho (up, down):  4.085E+00 3.074E+00

     total cpu time spent up to now is      278.8 secs

     total energy              =    -752.69215279 Ry
     estimated scf accuracy    <    2330.74654022 Ry

     total magnetization       =     0.01 Bohr mag/cell
     absolute magnetization    =   103.87 Bohr mag/cell

     iteration # 59     ecut=    60.00 Ry     beta= 0.70
     Davidson diagonalization with overlap
     ethr =  7.67E-05,  avg # of iterations = 11.6

     negative rho (up, down):  8.020E+00 7.245E+00

     total cpu time spent up to now is      288.8 secs

     total energy              =    -808.10895951 Ry
     estimated scf accuracy    <    2383.12064516 Ry

     total magnetization       =    -0.26 Bohr mag/cell
     absolute magnetization    =    93.82 Bohr mag/cell

     iteration # 60     ecut=    60.00 Ry     beta= 0.70
     Davidson diagonalization with overlap
     c_bands:  1 eigenvalues not converged
     c_bands:  1 eigenvalues not converged
     c_bands:  1 eigenvalues not converged
     c_bands:  1 eigenvalues not converged
     c_bands:  2 eigenvalues not converged
     c_bands:  1 eigenvalues not converged
     c_bands:  1 eigenvalues not converged
     c_bands:  1 eigenvalues not converged
     c_bands:  1 eigenvalues not converged
     c_bands:  1 eigenvalues not converged
     c_bands:  1 eigenvalues not converged
     c_bands:  1 eigenvalues not converged
     c_bands:  1 eigenvalues not converged
     c_bands:  1 eigenvalues not converged
     c_bands:  1 eigenvalues not converged
     c_bands:  1 eigenvalues not converged
     c_bands:  1 eigenvalues not converged
     c_bands:  1 eigenvalues not converged
     c_bands:  1 eigenvalues not converged
     c_bands:  1 eigenvalues not converged
     c_bands:  1 eigenvalues not converged
     c_bands:  1 eigenvalues not converged
     c_bands:  1 eigenvalues not converged
     c_bands:  1 eigenvalues not converged
     c_bands:  2 eigenvalues not converged
     c_bands:  2 eigenvalues not converged
     c_bands:  1 eigenvalues not converged
     ethr =  7.67E-05,  avg # of iterations = 14.6

     negative rho (up, down):  6.166E+00 5.568E+00

     total cpu time spent up to now is      301.9 secs

     total energy              =    -579.50149391 Ry
     estimated scf accuracy    <    3385.56841372 Ry

     total magnetization       =    -0.07 Bohr mag/cell
     absolute magnetization    =    70.81 Bohr mag/cell

     iteration # 61     ecut=    60.00 Ry     beta= 0.70
     Davidson diagonalization with overlap
     c_bands:  2 eigenvalues not converged
     c_bands:  1 eigenvalues not converged
     c_bands:  1 eigenvalues not converged
     c_bands:  2 eigenvalues not converged
     c_bands:  1 eigenvalues not converged
     c_bands:  1 eigenvalues not converged
     c_bands:  1 eigenvalues not converged
     c_bands:  2 eigenvalues not converged
     c_bands:  1 eigenvalues not converged
     c_bands:  1 eigenvalues not converged
     c_bands:  1 eigenvalues not converged
     c_bands:  1 eigenvalues not converged
     c_bands:  1 eigenvalues not converged
     c_bands:  1 eigenvalues not converged
     c_bands:  1 eigenvalues not converged
     c_bands:  1 eigenvalues not converged
     c_bands:  2 eigenvalues not converged
     c_bands:  1 eigenvalues not converged
     c_bands:  1 eigenvalues not converged
     c_bands:  1 eigenvalues not converged
     c_bands:  1 eigenvalues not converged
     c_bands:  1 eigenvalues not converged
     c_bands:  1 eigenvalues not converged
     c_bands:  3 eigenvalues not converged
     c_bands:  1 eigenvalues not converged
     c_bands:  1 eigenvalues not converged
     c_bands:  2 eigenvalues not converged
     c_bands:  1 eigenvalues not converged
     c_bands:  1 eigenvalues not converged
     c_bands:  1 eigenvalues not converged
     c_bands:  1 eigenvalues not converged
     c_bands:  1 eigenvalues not converged
     c_bands:  1 eigenvalues not converged
     c_bands:  2 eigenvalues not converged
     c_bands:  3 eigenvalues not converged
     c_bands:  1 eigenvalues not converged
     c_bands:  3 eigenvalues not converged
     c_bands:  2 eigenvalues not converged
     c_bands:  1 eigenvalues not converged
     c_bands:  1 eigenvalues not converged
     c_bands:  2 eigenvalues not converged
     c_bands:  1 eigenvalues not converged
     c_bands:  1 eigenvalues not converged
     c_bands:  1 eigenvalues not converged
     c_bands:  1 eigenvalues not converged
     c_bands:  1 eigenvalues not converged
     c_bands:  1 eigenvalues not converged
     c_bands:  1 eigenvalues not converged
     c_bands:  1 eigenvalues not converged
     c_bands:  1 eigenvalues not converged
     c_bands:  1 eigenvalues not converged
     c_bands:  1 eigenvalues not converged
     c_bands:  1 eigenvalues not converged
     c_bands:  1 eigenvalues not converged
     c_bands:  1 eigenvalues not converged
     c_bands:  1 eigenvalues not converged
     c_bands:  2 eigenvalues not converged
     c_bands:  1 eigenvalues not converged
     c_bands:  1 eigenvalues not converged
     c_bands:  1 eigenvalues not converged
     c_bands:  2 eigenvalues not converged
     c_bands:  1 eigenvalues not converged
     c_bands:  1 eigenvalues not converged
     c_bands:  2 eigenvalues not converged
     c_bands:  1 eigenvalues not converged
     c_bands:  2 eigenvalues not converged
     c_bands:  1 eigenvalues not converged
     c_bands:  1 eigenvalues not converged
     c_bands:  2 eigenvalues not converged
     c_bands:  1 eigenvalues not converged
     ethr =  7.67E-05,  avg # of iterations = 16.6

     negative rho (up, down):  7.954E+00 5.944E+00

     total cpu time spent up to now is      317.1 secs

     total energy              =    -831.28361175 Ry
     estimated scf accuracy    <    2771.36736633 Ry

     total magnetization       =     0.66 Bohr mag/cell
     absolute magnetization    =    86.49 Bohr mag/cell

     iteration # 62     ecut=    60.00 Ry     beta= 0.70
     Davidson diagonalization with overlap
     c_bands:  1 eigenvalues not converged
     ethr =  7.67E-05,  avg # of iterations =  9.7

     negative rho (up, down):  5.349E+00 9.528E+00

     total cpu time spent up to now is      326.1 secs

     total energy              =    -642.09704026 Ry
     estimated scf accuracy    <    2785.13555373 Ry

     total magnetization       =     0.27 Bohr mag/cell
     absolute magnetization    =   100.14 Bohr mag/cell

     iteration # 63     ecut=    60.00 Ry     beta= 0.70
     Davidson diagonalization with overlap
     c_bands:  1 eigenvalues not converged
     c_bands:  2 eigenvalues not converged
     c_bands:  1 eigenvalues not converged
     c_bands:  1 eigenvalues not converged
     c_bands:  1 eigenvalues not converged
     c_bands:  1 eigenvalues not converged
     c_bands:  1 eigenvalues not converged
     c_bands:  1 eigenvalues not converged
     c_bands:  1 eigenvalues not converged
     c_bands:  1 eigenvalues not converged
     c_bands:  2 eigenvalues not converged
     c_bands:  2 eigenvalues not converged
     c_bands:  1 eigenvalues not converged
     c_bands:  1 eigenvalues not converged
     c_bands:  1 eigenvalues not converged
     c_bands:  1 eigenvalues not converged
     c_bands:  1 eigenvalues not converged
     c_bands:  1 eigenvalues not converged
     c_bands:  1 eigenvalues not converged
     c_bands:  1 eigenvalues not converged
     c_bands:  1 eigenvalues not converged
     c_bands:  1 eigenvalues not converged
     c_bands:  1 eigenvalues not converged
     c_bands:  1 eigenvalues not converged
     c_bands:  1 eigenvalues not converged
     c_bands:  1 eigenvalues not converged
     c_bands:  1 eigenvalues not converged
     c_bands:  2 eigenvalues not converged
     c_bands:  1 eigenvalues not converged
     c_bands:  1 eigenvalues not converged
     c_bands:  1 eigenvalues not converged
     c_bands:  1 eigenvalues not converged
     c_bands:  1 eigenvalues not converged
     c_bands:  1 eigenvalues not converged
     c_bands:  1 eigenvalues not converged
     c_bands:  1 eigenvalues not converged
     c_bands:  1 eigenvalues not converged
     c_bands:  1 eigenvalues not converged
     c_bands:  1 eigenvalues not converged
     c_bands:  2 eigenvalues not converged
     c_bands:  1 eigenvalues not converged
     c_bands:  1 eigenvalues not converged
     c_bands:  1 eigenvalues not converged
     c_bands:  1 eigenvalues not converged
     c_bands:  1 eigenvalues not converged
     c_bands:  1 eigenvalues not converged
     c_bands:  1 eigenvalues not converged
     c_bands:  1 eigenvalues not converged
     c_bands:  1 eigenvalues not converged
     c_bands:  1 eigenvalues not converged
     c_bands:  1 eigenvalues not converged
     c_bands:  1 eigenvalues not converged
     c_bands:  1 eigenvalues not converged
     c_bands:  1 eigenvalues not converged
     c_bands:  1 eigenvalues not converged
     c_bands:  2 eigenvalues not converged
     c_bands:  2 eigenvalues not converged
     c_bands:  1 eigenvalues not converged
     c_bands:  1 eigenvalues not converged
     c_bands:  1 eigenvalues not converged
     c_bands:  2 eigenvalues not converged
     c_bands:  1 eigenvalues not converged
     c_bands:  1 eigenvalues not converged
     c_bands:  1 eigenvalues not converged
     c_bands:  1 eigenvalues not converged
     c_bands:  2 eigenvalues not converged
     c_bands:  1 eigenvalues not converged
     c_bands:  2 eigenvalues not converged
     c_bands:  1 eigenvalues not converged
     c_bands:  2 eigenvalues not converged
     c_bands:  1 eigenvalues not converged
     c_bands:  1 eigenvalues not converged
     c_bands:  2 eigenvalues not converged
     c_bands:  2 eigenvalues not converged
     c_bands:  2 eigenvalues not converged
     c_bands:  1 eigenvalues not converged
     c_bands:  1 eigenvalues not converged
     c_bands:  1 eigenvalues not converged
     c_bands:  1 eigenvalues not converged
     c_bands:  1 eigenvalues not converged
     c_bands:  1 eigenvalues not converged
     c_bands:  1 eigenvalues not converged
     ethr =  7.67E-05,  avg # of iterations = 18.1

     negative rho (up, down):  6.411E+00 5.738E+00

     total cpu time spent up to now is      342.7 secs

     total energy              =    -516.67616049 Ry
     estimated scf accuracy    <    4414.36350404 Ry

     total magnetization       =     0.20 Bohr mag/cell
     absolute magnetization    =    43.35 Bohr mag/cell

     iteration # 64     ecut=    60.00 Ry     beta= 0.70
     Davidson diagonalization with overlap
     c_bands:  1 eigenvalues not converged
     c_bands:  1 eigenvalues not converged
     c_bands:  1 eigenvalues not converged
     c_bands:  1 eigenvalues not converged
     c_bands:  1 eigenvalues not converged
     c_bands:  1 eigenvalues not converged
     c_bands:  1 eigenvalues not converged
     c_bands:  1 eigenvalues not converged
     c_bands:  1 eigenvalues not converged
     c_bands:  1 eigenvalues not converged
     c_bands:  2 eigenvalues not converged
     c_bands:  1 eigenvalues not converged
     c_bands:  1 eigenvalues not converged
     c_bands:  1 eigenvalues not converged
     c_bands:  1 eigenvalues not converged
     ethr =  7.67E-05,  avg # of iterations = 14.0

     negative rho (up, down):  4.950E+00 6.185E+00

     total cpu time spent up to now is      355.7 secs

     total energy              =    -788.33974382 Ry
     estimated scf accuracy    <    2235.83465944 Ry

     total magnetization       =     0.21 Bohr mag/cell
     absolute magnetization    =   122.94 Bohr mag/cell

     iteration # 65     ecut=    60.00 Ry     beta= 0.70
     Davidson diagonalization with overlap
     c_bands:  1 eigenvalues not converged
     c_bands:  1 eigenvalues not converged
     ethr =  7.67E-05,  avg # of iterations = 11.1

     negative rho (up, down):  7.826E+00 8.246E+00

     total cpu time spent up to now is      365.8 secs

     total energy              =    -665.23032520 Ry
     estimated scf accuracy    <    2596.12310137 Ry

     total magnetization       =    -0.15 Bohr mag/cell
     absolute magnetization    =   103.91 Bohr mag/cell

     iteration # 66     ecut=    60.00 Ry     beta= 0.70
     Davidson diagonalization with overlap
     c_bands:  1 eigenvalues not converged
     c_bands:  3 eigenvalues not converged
     c_bands:  1 eigenvalues not converged
     c_bands:  1 eigenvalues not converged
     c_bands:  1 eigenvalues not converged
     c_bands:  1 eigenvalues not converged
     c_bands:  1 eigenvalues not converged
     c_bands:  1 eigenvalues not converged
     c_bands:  3 eigenvalues not converged
     c_bands:  1 eigenvalues not converged
     c_bands:  2 eigenvalues not converged
     c_bands:  1 eigenvalues not converged
     c_bands:  1 eigenvalues not converged
     c_bands:  1 eigenvalues not converged
     c_bands:  1 eigenvalues not converged
     c_bands:  1 eigenvalues not converged
     c_bands:  1 eigenvalues not converged
     c_bands:  2 eigenvalues not converged
     c_bands:  2 eigenvalues not converged
     c_bands:  2 eigenvalues not converged
     c_bands:  1 eigenvalues not converged
     c_bands:  1 eigenvalues not converged
     c_bands:  2 eigenvalues not converged
     c_bands:  1 eigenvalues not converged
     c_bands:  2 eigenvalues not converged
     c_bands:  1 eigenvalues not converged
     c_bands:  1 eigenvalues not converged
     c_bands:  1 eigenvalues not converged
     c_bands:  1 eigenvalues not converged
     c_bands:  1 eigenvalues not converged
     c_bands:  1 eigenvalues not converged
     c_bands:  1 eigenvalues not converged
     c_bands:  1 eigenvalues not converged
     c_bands:  2 eigenvalues not converged
     c_bands:  2 eigenvalues not converged
     c_bands:  1 eigenvalues not converged
     c_bands:  2 eigenvalues not converged
     c_bands:  1 eigenvalues not converged
     c_bands:  1 eigenvalues not converged
     c_bands:  1 eigenvalues not converged
     c_bands:  2 eigenvalues not converged
     c_bands:  1 eigenvalues not converged
     c_bands:  1 eigenvalues not converged
     c_bands:  2 eigenvalues not converged
     c_bands:  1 eigenvalues not converged
     c_bands:  1 eigenvalues not converged
     c_bands:  1 eigenvalues not converged
     c_bands:  1 eigenvalues not converged
     c_bands:  1 eigenvalues not converged
     c_bands:  1 eigenvalues not converged
     c_bands:  2 eigenvalues not converged
     c_bands:  1 eigenvalues not converged
     c_bands:  3 eigenvalues not converged
     c_bands:  2 eigenvalues not converged
     c_bands:  1 eigenvalues not converged
     c_bands:  3 eigenvalues not converged
     c_bands:  1 eigenvalues not converged
     c_bands:  1 eigenvalues not converged
     c_bands:  1 eigenvalues not converged
     c_bands:  1 eigenvalues not converged
     c_bands:  2 eigenvalues not converged
     c_bands:  2 eigenvalues not converged
     c_bands:  1 eigenvalues not converged
     c_bands:  1 eigenvalues not converged
     c_bands:  1 eigenvalues not converged
     c_bands:  2 eigenvalues not converged
     c_bands:  1 eigenvalues not converged
     c_bands:  1 eigenvalues not converged
     c_bands:  1 eigenvalues not converged
     c_bands:  1 eigenvalues not converged
     c_bands:  1 eigenvalues not converged
     c_bands:  1 eigenvalues not converged
     c_bands:  1 eigenvalues not converged
     c_bands:  1 eigenvalues not converged
     c_bands:  1 eigenvalues not converged
     c_bands:  1 eigenvalues not converged
     c_bands:  1 eigenvalues not converged
     c_bands:  1 eigenvalues not converged
     c_bands:  1 eigenvalues not converged
     c_bands:  1 eigenvalues not converged
     c_bands:  1 eigenvalues not converged
     c_bands:  1 eigenvalues not converged
     c_bands:  1 eigenvalues not converged
     c_bands:  1 eigenvalues not converged
     c_bands:  1 eigenvalues not converged
     c_bands:  1 eigenvalues not converged
     c_bands:  1 eigenvalues not converged
     c_bands:  1 eigenvalues not converged
     c_bands:  1 eigenvalues not converged
     c_bands:  1 eigenvalues not converged
     c_bands:  1 eigenvalues not converged
     c_bands:  1 eigenvalues not converged
     c_bands:  1 eigenvalues not converged
     c_bands:  1 eigenvalues not converged
     c_bands:  1 eigenvalues not converged
     c_bands:  1 eigenvalues not converged
     c_bands:  1 eigenvalues not converged
     c_bands:  1 eigenvalues not converged
     c_bands:  1 eigenvalues not converged
     c_bands:  1 eigenvalues not converged
     c_bands:  1 eigenvalues not converged
     c_bands:  1 eigenvalues not converged
     c_bands:  2 eigenvalues not converged
     c_bands:  1 eigenvalues not converged
     c_bands:  1 eigenvalues not converged
     c_bands:  1 eigenvalues not converged
     c_bands:  1 eigenvalues not converged
     c_bands:  1 eigenvalues not converged
     c_bands:  1 eigenvalues not converged
     c_bands:  1 eigenvalues not converged
     ethr =  7.67E-05,  avg # of iterations = 18.8

     negative rho (up, down):  9.257E+00 8.224E+00

     total cpu time spent up to now is      383.4 secs

     total energy              =    -372.36130573 Ry
     estimated scf accuracy    <    4925.37774256 Ry

     total magnetization       =     0.11 Bohr mag/cell
     absolute magnetization    =    40.11 Bohr mag/cell

     iteration # 67     ecut=    60.00 Ry     beta= 0.70
     Davidson diagonalization with overlap
     c_bands:  1 eigenvalues not converged
     c_bands:  1 eigenvalues not converged
     c_bands:  1 eigenvalues not converged
     c_bands:  1 eigenvalues not converged
     c_bands:  1 eigenvalues not converged
     c_bands:  1 eigenvalues not converged
     c_bands:  1 eigenvalues not converged
     c_bands:  1 eigenvalues not converged
     c_bands:  1 eigenvalues not converged
     c_bands:  1 eigenvalues not converged
     c_bands:  1 eigenvalues not converged
     c_bands:  1 eigenvalues not converged
     c_bands:  1 eigenvalues not converged
     c_bands:  1 eigenvalues not converged
     c_bands:  1 eigenvalues not converged
     c_bands:  1 eigenvalues not converged
     c_bands:  1 eigenvalues not converged
     c_bands:  1 eigenvalues not converged
     c_bands:  1 eigenvalues not converged
     c_bands:  1 eigenvalues not converged
     c_bands:  1 eigenvalues not converged
     c_bands:  2 eigenvalues not converged
     c_bands:  1 eigenvalues not converged
     c_bands:  1 eigenvalues not converged
     c_bands:  1 eigenvalues not converged
     c_bands:  1 eigenvalues not converged
     c_bands:  2 eigenvalues not converged
     c_bands:  2 eigenvalues not converged
     c_bands:  1 eigenvalues not converged
     c_bands:  1 eigenvalues not converged
     c_bands:  1 eigenvalues not converged
     c_bands:  1 eigenvalues not converged
     c_bands:  1 eigenvalues not converged
     c_bands:  1 eigenvalues not converged
     c_bands:  1 eigenvalues not converged
     c_bands:  1 eigenvalues not converged
     c_bands:  1 eigenvalues not converged
     c_bands:  1 eigenvalues not converged
     c_bands:  1 eigenvalues not converged
     c_bands:  1 eigenvalues not converged
     c_bands:  1 eigenvalues not converged
     c_bands:  1 eigenvalues not converged
     c_bands:  1 eigenvalues not converged
     c_bands:  1 eigenvalues not converged
     c_bands:  1 eigenvalues not converged
     c_bands:  1 eigenvalues not converged
     c_bands:  1 eigenvalues not converged
     c_bands:  1 eigenvalues not converged
     c_bands:  1 eigenvalues not converged
     c_bands:  2 eigenvalues not converged
     c_bands:  1 eigenvalues not converged
     c_bands:  1 eigenvalues not converged
     c_bands:  1 eigenvalues not converged
     c_bands:  1 eigenvalues not converged
     c_bands:  1 eigenvalues not converged
     c_bands:  1 eigenvalues not converged
     c_bands:  1 eigenvalues not converged
     ethr =  7.67E-05,  avg # of iterations = 17.6

     negative rho (up, down):  7.323E+00 6.954E+00

     total cpu time spent up to now is      400.5 secs

     total energy              =    -547.34521532 Ry
     estimated scf accuracy    <    3869.76809330 Ry

     total magnetization       =    -0.06 Bohr mag/cell
     absolute magnetization    =    60.71 Bohr mag/cell

     iteration # 68     ecut=    60.00 Ry     beta= 0.70
     Davidson diagonalization with overlap
     c_bands:  1 eigenvalues not converged
     c_bands:  1 eigenvalues not converged
     c_bands:  1 eigenvalues not converged
     ethr =  7.67E-05,  avg # of iterations = 13.4

     negative rho (up, down):  6.938E+00 6.382E+00

     total cpu time spent up to now is      413.2 secs

     total energy              =    -782.46715951 Ry
     estimated scf accuracy    <    2048.91912845 Ry

     total magnetization       =     0.16 Bohr mag/cell
     absolute magnetization    =   125.87 Bohr mag/cell

     iteration # 69     ecut=    60.00 Ry     beta= 0.70
     Davidson diagonalization with overlap
     ethr =  7.67E-05,  avg # of iterations =  7.0

     negative rho (up, down):  9.758E+00 7.320E+00

     total cpu time spent up to now is      419.8 secs

     total energy              =    -765.54370090 Ry
     estimated scf accuracy    <    2113.16271438 Ry

     total magnetization       =    -0.02 Bohr mag/cell
     absolute magnetization    =   124.20 Bohr mag/cell

     iteration # 70     ecut=    60.00 Ry     beta= 0.70
     Davidson diagonalization with overlap
     c_bands:  1 eigenvalues not converged
     c_bands:  1 eigenvalues not converged
     c_bands:  2 eigenvalues not converged
     c_bands:  1 eigenvalues not converged
     c_bands:  1 eigenvalues not converged
     c_bands:  1 eigenvalues not converged
     c_bands:  1 eigenvalues not converged
     c_bands:  1 eigenvalues not converged
     c_bands:  1 eigenvalues not converged
     c_bands:  1 eigenvalues not converged
     c_bands:  1 eigenvalues not converged
     c_bands:  1 eigenvalues not converged
     c_bands:  1 eigenvalues not converged
     c_bands:  1 eigenvalues not converged
     c_bands:  1 eigenvalues not converged
     c_bands:  1 eigenvalues not converged
     c_bands:  1 eigenvalues not converged
     c_bands:  1 eigenvalues not converged
     c_bands:  1 eigenvalues not converged
     c_bands:  1 eigenvalues not converged
     c_bands:  2 eigenvalues not converged
     c_bands:  1 eigenvalues not converged
     c_bands:  1 eigenvalues not converged
     c_bands:  2 eigenvalues not converged
     c_bands:  1 eigenvalues not converged
     c_bands:  1 eigenvalues not converged
     c_bands:  1 eigenvalues not converged
     c_bands:  1 eigenvalues not converged
     c_bands:  1 eigenvalues not converged
     c_bands:  1 eigenvalues not converged
     c_bands:  1 eigenvalues not converged
     ethr =  7.67E-05,  avg # of iterations = 16.2

     negative rho (up, down):  7.749E+00 6.803E+00

     total cpu time spent up to now is      434.2 secs

     total energy              =    -594.00035689 Ry
     estimated scf accuracy    <    3758.86329053 Ry

     total magnetization       =     0.03 Bohr mag/cell
     absolute magnetization    =    68.78 Bohr mag/cell

     iteration # 71     ecut=    60.00 Ry     beta= 0.70
     Davidson diagonalization with overlap
     c_bands:  1 eigenvalues not converged
     c_bands:  1 eigenvalues not converged
     c_bands:  1 eigenvalues not converged
     c_bands:  1 eigenvalues not converged
     ethr =  7.67E-05,  avg # of iterations = 12.8

     negative rho (up, down):  8.508E+00 6.833E+00

     total cpu time spent up to now is      446.2 secs

     total energy              =    -793.54371562 Ry
     estimated scf accuracy    <    2037.02009043 Ry

     total magnetization       =     0.37 Bohr mag/cell
     absolute magnetization    =   120.31 Bohr mag/cell

     iteration # 72     ecut=    60.00 Ry     beta= 0.70
     Davidson diagonalization with overlap
     ethr =  7.67E-05,  avg # of iterations =  8.4

     negative rho (up, down):  6.739E+00 1.323E+01

     total cpu time spent up to now is      454.2 secs

     total energy              =    -629.32016122 Ry
     estimated scf accuracy    <    1994.62328121 Ry

     total magnetization       =     0.38 Bohr mag/cell
     absolute magnetization    =   110.26 Bohr mag/cell

     iteration # 73     ecut=    60.00 Ry     beta= 0.70
     Davidson diagonalization with overlap
     c_bands:  1 eigenvalues not converged
     c_bands:  1 eigenvalues not converged
     c_bands:  1 eigenvalues not converged
     c_bands:  1 eigenvalues not converged
     c_bands:  1 eigenvalues not converged
     c_bands:  1 eigenvalues not converged
     c_bands:  1 eigenvalues not converged
     c_bands:  1 eigenvalues not converged
     c_bands:  1 eigenvalues not converged
     c_bands:  1 eigenvalues not converged
     c_bands:  1 eigenvalues not converged
     c_bands:  1 eigenvalues not converged
     c_bands:  1 eigenvalues not converged
     c_bands:  1 eigenvalues not converged
     c_bands:  1 eigenvalues not converged
     c_bands:  1 eigenvalues not converged
     c_bands:  1 eigenvalues not converged
     c_bands:  1 eigenvalues not converged
     c_bands:  2 eigenvalues not converged
     c_bands:  1 eigenvalues not converged
     c_bands:  1 eigenvalues not converged
     c_bands:  1 eigenvalues not converged
     c_bands:  1 eigenvalues not converged
     c_bands:  1 eigenvalues not converged
     c_bands:  1 eigenvalues not converged
     c_bands:  2 eigenvalues not converged
     c_bands:  1 eigenvalues not converged
     c_bands:  1 eigenvalues not converged
     c_bands:  1 eigenvalues not converged
     c_bands:  1 eigenvalues not converged
     c_bands:  1 eigenvalues not converged
     c_bands:  2 eigenvalues not converged
     c_bands:  1 eigenvalues not converged
     c_bands:  1 eigenvalues not converged
     c_bands:  1 eigenvalues not converged
     c_bands:  1 eigenvalues not converged
     c_bands:  1 eigenvalues not converged
     c_bands:  1 eigenvalues not converged
     c_bands:  1 eigenvalues not converged
     c_bands:  1 eigenvalues not converged
     c_bands:  1 eigenvalues not converged
     c_bands:  1 eigenvalues not converged
     c_bands:  1 eigenvalues not converged
     c_bands:  1 eigenvalues not converged
     c_bands:  1 eigenvalues not converged
     c_bands:  1 eigenvalues not converged
     c_bands:  2 eigenvalues not converged
     c_bands:  1 eigenvalues not converged
     c_bands:  1 eigenvalues not converged
     c_bands:  1 eigenvalues not converged
     c_bands:  1 eigenvalues not converged
     c_bands:  1 eigenvalues not converged
     c_bands:  2 eigenvalues not converged
     c_bands:  2 eigenvalues not converged
     c_bands:  1 eigenvalues not converged
     c_bands:  1 eigenvalues not converged
     c_bands:  1 eigenvalues not converged
     c_bands:  1 eigenvalues not converged
     c_bands:  2 eigenvalues not converged
     c_bands:  1 eigenvalues not converged
     c_bands:  1 eigenvalues not converged
     ethr =  7.67E-05,  avg # of iterations = 18.7

     negative rho (up, down):  8.229E+00 8.475E+00

     total cpu time spent up to now is      470.8 secs

     total energy              =    -545.65931593 Ry
     estimated scf accuracy    <    5076.12737712 Ry

     total magnetization       =    -0.12 Bohr mag/cell
     absolute magnetization    =    38.84 Bohr mag/cell

     iteration # 74     ecut=    60.00 Ry     beta= 0.70
     Davidson diagonalization with overlap
     c_bands:  1 eigenvalues not converged
     c_bands:  1 eigenvalues not converged
     c_bands:  1 eigenvalues not converged
     c_bands:  1 eigenvalues not converged
     ethr =  7.67E-05,  avg # of iterations = 13.6

     negative rho (up, down):  7.028E+00 7.099E+00

     total cpu time spent up to now is      483.0 secs

     total energy              =    -756.68035246 Ry
     estimated scf accuracy    <    1785.65360945 Ry

     total magnetization       =     0.07 Bohr mag/cell
     absolute magnetization    =   127.52 Bohr mag/cell

     iteration # 75     ecut=    60.00 Ry     beta= 0.70
     Davidson diagonalization with overlap
     c_bands:  1 eigenvalues not converged
     c_bands:  1 eigenvalues not converged
     c_bands:  1 eigenvalues not converged
     ethr =  7.67E-05,  avg # of iterations = 11.6

     negative rho (up, down):  6.945E+00 6.916E+00

     total cpu time spent up to now is      493.1 secs

     total energy              =    -765.87584052 Ry
     estimated scf accuracy    <    2061.34123590 Ry

     total magnetization       =     0.21 Bohr mag/cell
     absolute magnetization    =   120.09 Bohr mag/cell

     iteration # 76     ecut=    60.00 Ry     beta= 0.70
     Davidson diagonalization with overlap
     ethr =  7.67E-05,  avg # of iterations =  9.0

     negative rho (up, down):  1.148E+01 1.379E+01

     total cpu time spent up to now is      501.1 secs

     total energy              =    -788.36260384 Ry
     estimated scf accuracy    <    2000.92677830 Ry

     total magnetization       =     0.06 Bohr mag/cell
     absolute magnetization    =   128.83 Bohr mag/cell

     iteration # 77     ecut=    60.00 Ry     beta= 0.70
     Davidson diagonalization with overlap
     c_bands:  1 eigenvalues not converged
     c_bands:  1 eigenvalues not converged
     c_bands:  1 eigenvalues not converged
     c_bands:  1 eigenvalues not converged
     c_bands:  1 eigenvalues not converged
     c_bands:  2 eigenvalues not converged
     c_bands:  1 eigenvalues not converged
     c_bands:  1 eigenvalues not converged
     c_bands:  1 eigenvalues not converged
     c_bands:  1 eigenvalues not converged
     c_bands:  1 eigenvalues not converged
     c_bands:  1 eigenvalues not converged
     c_bands:  1 eigenvalues not converged
     c_bands:  1 eigenvalues not converged
     c_bands:  1 eigenvalues not converged
     c_bands:  2 eigenvalues not converged
     c_bands:  1 eigenvalues not converged
     c_bands:  1 eigenvalues not converged
     c_bands:  1 eigenvalues not converged
     c_bands:  2 eigenvalues not converged
     c_bands:  1 eigenvalues not converged
     c_bands:  1 eigenvalues not converged
     c_bands:  1 eigenvalues not converged
     c_bands:  1 eigenvalues not converged
     c_bands:  2 eigenvalues not converged
     c_bands:  1 eigenvalues not converged
     c_bands:  3 eigenvalues not converged
     c_bands:  2 eigenvalues not converged
     c_bands:  1 eigenvalues not converged
     c_bands:  1 eigenvalues not converged
     c_bands:  1 eigenvalues not converged
     c_bands:  1 eigenvalues not converged
     c_bands:  1 eigenvalues not converged
     c_bands:  1 eigenvalues not converged
     c_bands:  1 eigenvalues not converged
     c_bands:  1 eigenvalues not converged
     c_bands:  1 eigenvalues not converged
     c_bands:  1 eigenvalues not converged
     c_bands:  2 eigenvalues not converged
     c_bands:  1 eigenvalues not converged
     c_bands:  1 eigenvalues not converged
     c_bands:  1 eigenvalues not converged
     c_bands:  1 eigenvalues not converged
     c_bands:  1 eigenvalues not converged
     c_bands:  2 eigenvalues not converged
     c_bands:  1 eigenvalues not converged
     c_bands:  1 eigenvalues not converged
     c_bands:  1 eigenvalues not converged
     c_bands:  2 eigenvalues not converged
     c_bands:  3 eigenvalues not converged
     c_bands:  1 eigenvalues not converged
     c_bands:  1 eigenvalues not converged
     c_bands:  1 eigenvalues not converged
     c_bands:  1 eigenvalues not converged
     c_bands:  1 eigenvalues not converged
     c_bands:  1 eigenvalues not converged
     c_bands:  1 eigenvalues not converged
     c_bands:  1 eigenvalues not converged
     c_bands:  2 eigenvalues not converged
     c_bands:  2 eigenvalues not converged
     c_bands:  1 eigenvalues not converged
     c_bands:  1 eigenvalues not converged
     ethr =  7.67E-05,  avg # of iterations = 18.5

     negative rho (up, down):  9.377E+00 9.655E+00

     total cpu time spent up to now is      517.8 secs

     total energy              =    -464.07805758 Ry
     estimated scf accuracy    <    5711.41077529 Ry

     total magnetization       =    -0.53 Bohr mag/cell
     absolute magnetization    =    25.75 Bohr mag/cell

     iteration # 78     ecut=    60.00 Ry     beta= 0.70
     Davidson diagonalization with overlap
     c_bands:  1 eigenvalues not converged
     c_bands:  1 eigenvalues not converged
     c_bands:  1 eigenvalues not converged
     c_bands:  1 eigenvalues not converged
     c_bands:  1 eigenvalues not converged
     c_bands:  1 eigenvalues not converged
     c_bands:  1 eigenvalues not converged
     c_bands:  1 eigenvalues not converged
     ethr =  7.67E-05,  avg # of iterations = 13.7

     negative rho (up, down):  8.340E+00 8.767E+00

     total cpu time spent up to now is      530.1 secs

     total energy              =    -770.38317854 Ry
     estimated scf accuracy    <    1575.93408893 Ry

     total magnetization       =     0.16 Bohr mag/cell
     absolute magnetization    =   128.36 Bohr mag/cell

     iteration # 79     ecut=    60.00 Ry     beta= 0.70
     Davidson diagonalization with overlap
     c_bands:  1 eigenvalues not converged
     ethr =  7.67E-05,  avg # of iterations =  6.9

     negative rho (up, down):  7.977E+00 7.383E+00

     total cpu time spent up to now is      536.5 secs

     total energy              =    -762.70230608 Ry
     estimated scf accuracy    <    1753.17468273 Ry

     total magnetization       =     0.14 Bohr mag/cell
     absolute magnetization    =   127.69 Bohr mag/cell

     iteration # 80     ecut=    60.00 Ry     beta= 0.70
     Davidson diagonalization with overlap
     c_bands:  1 eigenvalues not converged
     c_bands:  1 eigenvalues not converged
     c_bands:  1 eigenvalues not converged
     c_bands:  1 eigenvalues not converged
     ethr =  7.67E-05,  avg # of iterations = 13.4

     negative rho (up, down):  1.057E+01 8.478E+00

     total cpu time spent up to now is      547.4 secs

     total energy              =    -767.08995529 Ry
     estimated scf accuracy    <    1963.23639370 Ry

     total magnetization       =    -0.04 Bohr mag/cell
     absolute magnetization    =   123.71 Bohr mag/cell

     iteration # 81     ecut=    60.00 Ry     beta= 0.70
     Davidson diagonalization with overlap
     c_bands:  1 eigenvalues not converged
     c_bands:  1 eigenvalues not converged
     c_bands:  1 eigenvalues not converged
     c_bands:  1 eigenvalues not converged
     c_bands:  1 eigenvalues not converged
     c_bands:  1 eigenvalues not converged
     c_bands:  1 eigenvalues not converged
     c_bands:  1 eigenvalues not converged
     c_bands:  1 eigenvalues not converged
     c_bands:  2 eigenvalues not converged
     c_bands:  1 eigenvalues not converged
     c_bands:  1 eigenvalues not converged
     c_bands:  1 eigenvalues not converged
     c_bands:  1 eigenvalues not converged
     c_bands:  1 eigenvalues not converged
     c_bands:  1 eigenvalues not converged
     c_bands:  1 eigenvalues not converged
     c_bands:  1 eigenvalues not converged
     c_bands:  2 eigenvalues not converged
     c_bands:  1 eigenvalues not converged
     c_bands:  1 eigenvalues not converged
     ethr =  7.67E-05,  avg # of iterations = 14.4

     negative rho (up, down):  1.438E+01 1.520E+01

     total cpu time spent up to now is      560.0 secs

     total energy              =    -523.39955473 Ry
     estimated scf accuracy    <    1806.83772387 Ry

     total magnetization       =    -0.07 Bohr mag/cell
     absolute magnetization    =    92.49 Bohr mag/cell

     iteration # 82     ecut=    60.00 Ry     beta= 0.70
     Davidson diagonalization with overlap
     c_bands:  1 eigenvalues not converged
     c_bands:  1 eigenvalues not converged
     c_bands:  1 eigenvalues not converged
     c_bands:  1 eigenvalues not converged
     c_bands:  1 eigenvalues not converged
     c_bands:  1 eigenvalues not converged
     c_bands:  1 eigenvalues not converged
     c_bands:  1 eigenvalues not converged
     c_bands:  1 eigenvalues not converged
     c_bands:  1 eigenvalues not converged
     c_bands:  1 eigenvalues not converged
     c_bands:  1 eigenvalues not converged
     c_bands:  2 eigenvalues not converged
     c_bands:  1 eigenvalues not converged
     c_bands:  1 eigenvalues not converged
     c_bands:  1 eigenvalues not converged
     c_bands:  1 eigenvalues not converged
     c_bands:  1 eigenvalues not converged
     c_bands:  1 eigenvalues not converged
     c_bands:  1 eigenvalues not converged
     c_bands:  1 eigenvalues not converged
     c_bands:  1 eigenvalues not converged
     c_bands:  1 eigenvalues not converged
     c_bands:  2 eigenvalues not converged
     c_bands:  1 eigenvalues not converged
     c_bands:  1 eigenvalues not converged
     c_bands:  1 eigenvalues not converged
     c_bands:  1 eigenvalues not converged
     c_bands:  2 eigenvalues not converged
     c_bands:  1 eigenvalues not converged
     c_bands:  1 eigenvalues not converged
     c_bands:  1 eigenvalues not converged
     c_bands:  1 eigenvalues not converged
     c_bands:  1 eigenvalues not converged
     c_bands:  1 eigenvalues not converged
     c_bands:  1 eigenvalues not converged
     c_bands:  1 eigenvalues not converged
     c_bands:  1 eigenvalues not converged
     c_bands:  1 eigenvalues not converged
     c_bands:  1 eigenvalues not converged
     c_bands:  1 eigenvalues not converged
     c_bands:  3 eigenvalues not converged
     c_bands:  1 eigenvalues not converged
     c_bands:  1 eigenvalues not converged
     c_bands:  1 eigenvalues not converged
     c_bands:  1 eigenvalues not converged
     c_bands:  1 eigenvalues not converged
     c_bands:  1 eigenvalues not converged
     c_bands:  1 eigenvalues not converged
     c_bands:  1 eigenvalues not converged
     c_bands:  3 eigenvalues not converged
     c_bands:  1 eigenvalues not converged
     c_bands:  1 eigenvalues not converged
     c_bands:  1 eigenvalues not converged
     c_bands:  1 eigenvalues not converged
     c_bands:  1 eigenvalues not converged
     c_bands:  2 eigenvalues not converged
     c_bands:  1 eigenvalues not converged
     c_bands:  2 eigenvalues not converged
     c_bands:  2 eigenvalues not converged
     c_bands:  1 eigenvalues not converged
     c_bands:  3 eigenvalues not converged
     c_bands:  1 eigenvalues not converged
     c_bands:  2 eigenvalues not converged
     c_bands:  2 eigenvalues not converged
     c_bands:  1 eigenvalues not converged
     c_bands:  1 eigenvalues not converged
     c_bands:  2 eigenvalues not converged
     ethr =  7.67E-05,  avg # of iterations = 18.3

     negative rho (up, down):  1.323E+01 1.672E+01

     total cpu time spent up to now is      576.2 secs

     total energy              =    -388.06878592 Ry
     estimated scf accuracy    <    3821.61745272 Ry

     total magnetization       =     0.07 Bohr mag/cell
     absolute magnetization    =    66.82 Bohr mag/cell

     iteration # 83     ecut=    60.00 Ry     beta= 0.70
     Davidson diagonalization with overlap
     c_bands:  1 eigenvalues not converged
     c_bands:  1 eigenvalues not converged
     c_bands:  1 eigenvalues not converged
     c_bands:  1 eigenvalues not converged
     c_bands:  1 eigenvalues not converged
     c_bands:  1 eigenvalues not converged
     c_bands:  1 eigenvalues not converged
     c_bands:  1 eigenvalues not converged
     c_bands:  1 eigenvalues not converged
     c_bands:  1 eigenvalues not converged
     c_bands:  1 eigenvalues not converged
     c_bands:  1 eigenvalues not converged
     c_bands:  1 eigenvalues not converged
     c_bands:  1 eigenvalues not converged
     c_bands:  1 eigenvalues not converged
     c_bands:  1 eigenvalues not converged
     c_bands:  1 eigenvalues not converged
     c_bands:  1 eigenvalues not converged
     c_bands:  1 eigenvalues not converged
     c_bands:  1 eigenvalues not converged
     c_bands:  1 eigenvalues not converged
     c_bands:  1 eigenvalues not converged
     c_bands:  1 eigenvalues not converged
     c_bands:  2 eigenvalues not converged
     c_bands:  1 eigenvalues not converged
     c_bands:  1 eigenvalues not converged
     c_bands:  1 eigenvalues not converged
     c_bands:  1 eigenvalues not converged
     c_bands:  1 eigenvalues not converged
     c_bands:  1 eigenvalues not converged
     c_bands:  1 eigenvalues not converged
     c_bands:  1 eigenvalues not converged
     c_bands:  2 eigenvalues not converged
     c_bands:  1 eigenvalues not converged
     c_bands:  1 eigenvalues not converged
     c_bands:  1 eigenvalues not converged
     c_bands:  1 eigenvalues not converged
     c_bands:  3 eigenvalues not converged
     c_bands:  1 eigenvalues not converged
     c_bands:  2 eigenvalues not converged
     c_bands:  2 eigenvalues not converged
     c_bands:  1 eigenvalues not converged
     c_bands:  1 eigenvalues not converged
     c_bands:  1 eigenvalues not converged
     c_bands:  1 eigenvalues not converged
     c_bands:  1 eigenvalues not converged
     c_bands:  3 eigenvalues not converged
     c_bands:  1 eigenvalues not converged
     c_bands:  2 eigenvalues not converged
     c_bands:  1 eigenvalues not converged
     c_bands:  1 eigenvalues not converged
     c_bands:  1 eigenvalues not converged
     c_bands:  1 eigenvalues not converged
     c_bands:  1 eigenvalues not converged
     c_bands:  1 eigenvalues not converged
     c_bands:  1 eigenvalues not converged
     c_bands:  1 eigenvalues not converged
     c_bands:  1 eigenvalues not converged
     c_bands:  1 eigenvalues not converged
     c_bands:  1 eigenvalues not converged
     c_bands:  1 eigenvalues not converged
     c_bands:  1 eigenvalues not converged
     c_bands:  1 eigenvalues not converged
     c_bands:  1 eigenvalues not converged
     c_bands:  1 eigenvalues not converged
     c_bands:  1 eigenvalues not converged
     c_bands:  1 eigenvalues not converged
     c_bands:  1 eigenvalues not converged
     c_bands:  1 eigenvalues not converged
     c_bands:  1 eigenvalues not converged
     c_bands:  2 eigenvalues not converged
     c_bands:  2 eigenvalues not converged
     c_bands:  1 eigenvalues not converged
     c_bands:  1 eigenvalues not converged
     c_bands:  1 eigenvalues not converged
     c_bands:  2 eigenvalues not converged
     c_bands:  1 eigenvalues not converged
     c_bands:  1 eigenvalues not converged
     c_bands:  1 eigenvalues not converged
     c_bands:  1 eigenvalues not converged
     c_bands:  1 eigenvalues not converged
     c_bands:  1 eigenvalues not converged
     c_bands:  1 eigenvalues not converged
     c_bands:  1 eigenvalues not converged
     c_bands:  3 eigenvalues not converged
     c_bands:  2 eigenvalues not converged
     c_bands:  1 eigenvalues not converged
     c_bands:  1 eigenvalues not converged
     c_bands:  2 eigenvalues not converged
     c_bands:  3 eigenvalues not converged
     c_bands:  1 eigenvalues not converged
     c_bands:  1 eigenvalues not converged
     c_bands:  3 eigenvalues not converged
     c_bands:  1 eigenvalues not converged
     c_bands:  1 eigenvalues not converged
     c_bands:  1 eigenvalues not converged
     c_bands:  1 eigenvalues not converged
     c_bands:  1 eigenvalues not converged
     c_bands:  1 eigenvalues not converged
     ethr =  7.67E-05,  avg # of iterations = 18.7

     negative rho (up, down):  1.187E+01 1.092E+01

     total cpu time spent up to now is      593.6 secs

     total energy              =    -454.82474932 Ry
     estimated scf accuracy    <    4479.55165899 Ry

     total magnetization       =    -0.35 Bohr mag/cell
     absolute magnetization    =    47.55 Bohr mag/cell

     iteration # 84     ecut=    60.00 Ry     beta= 0.70
     Davidson diagonalization with overlap
     c_bands:  1 eigenvalues not converged
     c_bands:  1 eigenvalues not converged
     c_bands:  1 eigenvalues not converged
     c_bands:  1 eigenvalues not converged
     c_bands:  1 eigenvalues not converged
     c_bands:  1 eigenvalues not converged
     c_bands:  1 eigenvalues not converged
     c_bands:  1 eigenvalues not converged
     c_bands:  1 eigenvalues not converged
     c_bands:  1 eigenvalues not converged
     c_bands:  1 eigenvalues not converged
     c_bands:  1 eigenvalues not converged
     c_bands:  1 eigenvalues not converged
     c_bands:  1 eigenvalues not converged
     c_bands:  1 eigenvalues not converged
     c_bands:  2 eigenvalues not converged
     c_bands:  1 eigenvalues not converged
     c_bands:  1 eigenvalues not converged
     c_bands:  1 eigenvalues not converged
     c_bands:  1 eigenvalues not converged
     c_bands:  1 eigenvalues not converged
     c_bands:  1 eigenvalues not converged
     c_bands:  1 eigenvalues not converged
     c_bands:  1 eigenvalues not converged
     c_bands:  1 eigenvalues not converged
     c_bands:  1 eigenvalues not converged
     c_bands:  1 eigenvalues not converged
     c_bands:  1 eigenvalues not converged
     c_bands:  1 eigenvalues not converged
     c_bands:  1 eigenvalues not converged
     c_bands:  1 eigenvalues not converged
     c_bands:  1 eigenvalues not converged
     c_bands:  1 eigenvalues not converged
     c_bands:  2 eigenvalues not converged
     c_bands:  2 eigenvalues not converged
     c_bands:  1 eigenvalues not converged
     c_bands:  1 eigenvalues not converged
     ethr =  7.67E-05,  avg # of iterations = 15.4

     negative rho (up, down):  1.235E+01 1.263E+01

     total cpu time spent up to now is      607.5 secs

     total energy              =    -668.47496598 Ry
     estimated scf accuracy    <    2013.62456303 Ry

     total magnetization       =    -0.09 Bohr mag/cell
     absolute magnetization    =   101.87 Bohr mag/cell

     iteration # 85     ecut=    60.00 Ry     beta= 0.70
     Davidson diagonalization with overlap
     c_bands:  1 eigenvalues not converged
     c_bands:  1 eigenvalues not converged
     c_bands:  1 eigenvalues not converged
     c_bands:  1 eigenvalues not converged
     c_bands:  1 eigenvalues not converged
     c_bands:  1 eigenvalues not converged
     c_bands:  1 eigenvalues not converged
     c_bands:  1 eigenvalues not converged
     c_bands:  1 eigenvalues not converged
     c_bands:  1 eigenvalues not converged
     c_bands:  1 eigenvalues not converged
     c_bands:  2 eigenvalues not converged
     ethr =  7.67E-05,  avg # of iterations = 13.6

     negative rho (up, down):  1.335E+01 1.285E+01

     total cpu time spent up to now is      619.9 secs

     total energy              =    -648.81844979 Ry
     estimated scf accuracy    <    1954.16162309 Ry

     total magnetization       =     0.25 Bohr mag/cell
     absolute magnetization    =   106.01 Bohr mag/cell

     iteration # 86     ecut=    60.00 Ry     beta= 0.70
     Davidson diagonalization with overlap
     c_bands:  1 eigenvalues not converged
     c_bands:  1 eigenvalues not converged
     c_bands:  1 eigenvalues not converged
     c_bands:  1 eigenvalues not converged
     c_bands:  1 eigenvalues not converged
     c_bands:  1 eigenvalues not converged
     ethr =  7.67E-05,  avg # of iterations = 12.3

     negative rho (up, down):  1.697E+01 1.757E+01

     total cpu time spent up to now is      630.8 secs

     total energy              =    -716.80009981 Ry
     estimated scf accuracy    <     970.74824857 Ry

     total magnetization       =     0.30 Bohr mag/cell
     absolute magnetization    =   128.08 Bohr mag/cell

     iteration # 87     ecut=    60.00 Ry     beta= 0.70
     Davidson diagonalization with overlap
     c_bands:  1 eigenvalues not converged
     ethr =  7.67E-05,  avg # of iterations = 10.2

     negative rho (up, down):  1.577E+01 1.497E+01

     total cpu time spent up to now is      639.8 secs

     total energy              =    -675.91657554 Ry
     estimated scf accuracy    <    1270.49806187 Ry

     total magnetization       =     0.03 Bohr mag/cell
     absolute magnetization    =   100.67 Bohr mag/cell

     iteration # 88     ecut=    60.00 Ry     beta= 0.70
     Davidson diagonalization with overlap
     c_bands:  1 eigenvalues not converged
     c_bands:  1 eigenvalues not converged
     c_bands:  1 eigenvalues not converged
     ethr =  7.67E-05,  avg # of iterations = 10.9

     negative rho (up, down):  1.616E+01 1.537E+01

     total cpu time spent up to now is      649.1 secs

     total energy              =    -711.72177393 Ry
     estimated scf accuracy    <     632.77930733 Ry

     total magnetization       =     0.21 Bohr mag/cell
     absolute magnetization    =   125.02 Bohr mag/cell

     iteration # 89     ecut=    60.00 Ry     beta= 0.70
     Davidson diagonalization with overlap
     ethr =  7.67E-05,  avg # of iterations =  6.9

     negative rho (up, down):  1.536E+01 1.460E+01

     total cpu time spent up to now is      655.7 secs

     total energy              =    -717.93907202 Ry
     estimated scf accuracy    <     652.82132824 Ry

     total magnetization       =     0.26 Bohr mag/cell
     absolute magnetization    =   127.48 Bohr mag/cell

     iteration # 90     ecut=    60.00 Ry     beta= 0.70
     Davidson diagonalization with overlap
     ethr =  7.67E-05,  avg # of iterations =  5.9

     negative rho (up, down):  1.681E+01 1.366E+01

     total cpu time spent up to now is      661.3 secs

     total energy              =    -736.04303462 Ry
     estimated scf accuracy    <     720.94774019 Ry

     total magnetization       =     0.24 Bohr mag/cell
     absolute magnetization    =   128.56 Bohr mag/cell

     iteration # 91     ecut=    60.00 Ry     beta= 0.70
     Davidson diagonalization with overlap
     c_bands:  1 eigenvalues not converged
     c_bands:  1 eigenvalues not converged
     ethr =  7.67E-05,  avg # of iterations = 10.7

     negative rho (up, down):  1.825E+01 1.938E+01

     total cpu time spent up to now is      670.9 secs

     total energy              =    -529.22359157 Ry
     estimated scf accuracy    <    2056.62821807 Ry

     total magnetization       =    -0.17 Bohr mag/cell
     absolute magnetization    =    79.75 Bohr mag/cell

     iteration # 92     ecut=    60.00 Ry     beta= 0.70
     Davidson diagonalization with overlap
     c_bands:  1 eigenvalues not converged
     c_bands:  1 eigenvalues not converged
     c_bands:  1 eigenvalues not converged
     c_bands:  1 eigenvalues not converged
     c_bands:  1 eigenvalues not converged
     c_bands:  1 eigenvalues not converged
     c_bands:  1 eigenvalues not converged
     c_bands:  1 eigenvalues not converged
     c_bands:  1 eigenvalues not converged
     c_bands:  1 eigenvalues not converged
     c_bands:  1 eigenvalues not converged
     c_bands:  1 eigenvalues not converged
     c_bands:  1 eigenvalues not converged
     c_bands:  1 eigenvalues not converged
     c_bands:  1 eigenvalues not converged
     c_bands:  1 eigenvalues not converged
     ethr =  7.67E-05,  avg # of iterations = 14.4

     negative rho (up, down):  1.632E+01 2.060E+01

     total cpu time spent up to now is      683.6 secs

     total energy              =    -554.00751594 Ry
     estimated scf accuracy    <    1976.94424387 Ry

     total magnetization       =     0.09 Bohr mag/cell
     absolute magnetization    =    98.67 Bohr mag/cell

     iteration # 93     ecut=    60.00 Ry     beta= 0.70
     Davidson diagonalization with overlap
     c_bands:  1 eigenvalues not converged
     c_bands:  1 eigenvalues not converged
     c_bands:  1 eigenvalues not converged
     c_bands:  1 eigenvalues not converged
     c_bands:  1 eigenvalues not converged
     c_bands:  1 eigenvalues not converged
     c_bands:  1 eigenvalues not converged
     c_bands:  1 eigenvalues not converged
     c_bands:  1 eigenvalues not converged
     c_bands:  1 eigenvalues not converged
     c_bands:  1 eigenvalues not converged
     c_bands:  1 eigenvalues not converged
     c_bands:  1 eigenvalues not converged
     c_bands:  1 eigenvalues not converged
     c_bands:  1 eigenvalues not converged
     c_bands:  1 eigenvalues not converged
     c_bands:  1 eigenvalues not converged
     c_bands:  1 eigenvalues not converged
     c_bands:  1 eigenvalues not converged
     c_bands:  1 eigenvalues not converged
     c_bands:  1 eigenvalues not converged
     c_bands:  1 eigenvalues not converged
     c_bands:  1 eigenvalues not converged
     c_bands:  1 eigenvalues not converged
     c_bands:  1 eigenvalues not converged
     c_bands:  1 eigenvalues not converged
     c_bands:  1 eigenvalues not converged
     c_bands:  1 eigenvalues not converged
     c_bands:  1 eigenvalues not converged
     c_bands:  1 eigenvalues not converged
     ethr =  7.67E-05,  avg # of iterations = 15.8

     negative rho (up, down):  1.854E+01 1.880E+01

     total cpu time spent up to now is      697.8 secs

     total energy              =    -500.74496360 Ry
     estimated scf accuracy    <    4420.66122207 Ry

     total magnetization       =    -0.93 Bohr mag/cell
     absolute magnetization    =    52.06 Bohr mag/cell

     iteration # 94     ecut=    60.00 Ry     beta= 0.70
     Davidson diagonalization with overlap
     c_bands:  1 eigenvalues not converged
     ethr =  7.67E-05,  avg # of iterations = 11.9

     negative rho (up, down):  1.980E+01 2.026E+01

     total cpu time spent up to now is      708.4 secs

     total energy              =    -655.63176958 Ry
     estimated scf accuracy    <     695.66368207 Ry

     total magnetization       =    -0.21 Bohr mag/cell
     absolute magnetization    =   123.79 Bohr mag/cell

     iteration # 95     ecut=    60.00 Ry     beta= 0.70
     Davidson diagonalization with overlap
     c_bands:  1 eigenvalues not converged
     c_bands:  2 eigenvalues not converged
     ethr =  7.67E-05,  avg # of iterations = 11.9

     negative rho (up, down):  1.897E+01 1.861E+01

     total cpu time spent up to now is      719.0 secs

     total energy              =    -629.13023051 Ry
     estimated scf accuracy    <    1321.72133886 Ry

     total magnetization       =    -0.19 Bohr mag/cell
     absolute magnetization    =   110.60 Bohr mag/cell

     iteration # 96     ecut=    60.00 Ry     beta= 0.70
     Davidson diagonalization with overlap
     c_bands:  1 eigenvalues not converged
     ethr =  7.67E-05,  avg # of iterations = 10.9

     negative rho (up, down):  1.849E+01 1.861E+01

     total cpu time spent up to now is      728.8 secs

     total energy              =    -688.31192937 Ry
     estimated scf accuracy    <     406.41209460 Ry

     total magnetization       =     0.10 Bohr mag/cell
     absolute magnetization    =   130.04 Bohr mag/cell

     iteration # 97     ecut=    60.00 Ry     beta= 0.70
     Davidson diagonalization with overlap
     ethr =  7.67E-05,  avg # of iterations =  6.7

     negative rho (up, down):  1.985E+01 1.873E+01

     total cpu time spent up to now is      735.3 secs

     total energy              =    -692.48072245 Ry
     estimated scf accuracy    <     381.45062661 Ry

     total magnetization       =    -0.08 Bohr mag/cell
     absolute magnetization    =   130.07 Bohr mag/cell

     iteration # 98     ecut=    60.00 Ry     beta= 0.70
     Davidson diagonalization with overlap
     c_bands:  1 eigenvalues not converged
     ethr =  7.67E-05,  avg # of iterations =  9.0

     negative rho (up, down):  2.053E+01 2.089E+01

     total cpu time spent up to now is      743.2 secs

     total energy              =    -638.14228061 Ry
     estimated scf accuracy    <     611.42260530 Ry

     total magnetization       =    -0.11 Bohr mag/cell
     absolute magnetization    =   107.56 Bohr mag/cell

     iteration # 99     ecut=    60.00 Ry     beta= 0.70
     Davidson diagonalization with overlap
     c_bands:  1 eigenvalues not converged
     c_bands:  1 eigenvalues not converged
     ethr =  7.67E-05,  avg # of iterations =  8.9

     negative rho (up, down):  2.090E+01 2.102E+01

     total cpu time spent up to now is      751.1 secs

     total energy              =    -677.67298318 Ry
     estimated scf accuracy    <     231.71499234 Ry

     total magnetization       =     0.01 Bohr mag/cell
     absolute magnetization    =   130.62 Bohr mag/cell

     iteration #100     ecut=    60.00 Ry     beta= 0.70
     Davidson diagonalization with overlap
     c_bands:  1 eigenvalues not converged
     ethr =  7.67E-05,  avg # of iterations = 11.6

     negative rho (up, down):  2.308E+01 2.080E+01

     total cpu time spent up to now is      761.2 secs

     total energy              =    -624.09829259 Ry
     estimated scf accuracy    <     744.24914347 Ry

     total magnetization       =    -0.01 Bohr mag/cell
     absolute magnetization    =   119.79 Bohr mag/cell

     End of self-consistent calculation

     convergence NOT achieved after 100 iterations: stopping

     Writing config to output data dir ./out/pwscf.save/

     init_run     :      0.72s CPU      0.91s WALL (       1 calls)
     electrons    :    586.69s CPU    760.24s WALL (       1 calls)

     Called by init_run:
     wfcinit      :      0.62s CPU      0.78s WALL (       1 calls)
     potinit      :      0.02s CPU      0.02s WALL (       1 calls)
     hinit0       :      0.07s CPU      0.10s WALL (       1 calls)

     Called by electrons:
     c_bands      :    560.14s CPU    725.45s WALL (     100 calls)
     sum_band     :     25.25s CPU     33.29s WALL (     100 calls)
     v_of_rho     :      0.64s CPU      0.68s WALL (     101 calls)
     newd         :      0.54s CPU      0.57s WALL (     101 calls)
     mix_rho      :      0.08s CPU      0.15s WALL (     100 calls)

     Called by c_bands:
     init_us_2    :      0.87s CPU      1.14s WALL (   65526 calls)
     init_us_2:cp :      0.80s CPU      1.07s WALL (   65526 calls)
     cegterg      :    554.83s CPU    718.31s WALL (   32602 calls)

     Called by *egterg:
     cdiaghg      :    163.21s CPU    211.29s WALL (  290393 calls)
     h_psi        :    260.61s CPU    346.76s WALL (  290719 calls)
     s_psi        :     13.77s CPU     17.45s WALL (  290719 calls)
     g_psi        :      0.71s CPU      0.83s WALL (  257791 calls)

     Called by h_psi:
     h_psi:calbec :     17.35s CPU     23.23s WALL (  290719 calls)
     vloc_psi     :    228.57s CPU    304.49s WALL (  290719 calls)
     add_vuspsi   :     13.51s CPU     17.55s WALL (  290719 calls)

     General routines
     calbec       :     19.54s CPU     26.19s WALL (  323319 calls)
     fft          :      0.26s CPU      0.33s WALL (    2523 calls)
     ffts         :      0.02s CPU      0.02s WALL (     402 calls)
     fftw         :    238.33s CPU    317.57s WALL ( 9028470 calls)
     interpolate  :      0.03s CPU      0.03s WALL (     202 calls)
     davcio       :      0.00s CPU      0.00s WALL (      18 calls)

     Parallel routines

     PWSCF        :   9m47.55s CPU  12m41.35s WALL


   This run was terminated on:  14:52:16  23Jun2023            

=------------------------------------------------------------------------------=
   JOB DONE.
=------------------------------------------------------------------------------=
