Ignoring PCI device with non-16bit domain.
Pass --enable-32bits-pci-domain to configure to support such devices
(warning: it would break the library ABI, don't enable unless really needed).

     Program PWSCF v.7.1 starts on 18Jun2023 at 16:18: 0 

     This program is part of the open-source Quantum ESPRESSO suite
     for quantum simulation of materials; please cite
         "P. Giannozzi et al., J. Phys.:Condens. Matter 21 395502 (2009);
         "P. Giannozzi et al., J. Phys.:Condens. Matter 29 465901 (2017);
         "P. Giannozzi et al., J. Chem. Phys. 152 154105 (2020);
          URL http://www.quantum-espresso.org", 
     in publications or presentations arising from this work. More details at
     http://www.quantum-espresso.org/quote

     Parallel version (MPI), running on    24 processors

     MPI processes distributed on     1 nodes
     9453 MiB available memory on the printing compute node when the environment starts

     Reading input from Ni_cubic_fcc_atoms.in

     Current dimensions of program PWSCF are:
     Max number of different atomic species (ntypx) = 10
     Max number of k-points (npk) =  40000
     Max angular momentum in pseudopotentials (lmaxx) =  4

     K-points division:     npool     =       2
     R & G space division:  proc/nbgrp/npool/nimage =      12
     Subspace diagonalization in iterative solution of the eigenvalue problem:
     a serial algorithm will be used


     Parallelization info
     --------------------
     sticks:   dense  smooth     PW     G-vecs:    dense   smooth      PW
     Min          54      26     10                  903      319      72
     Max          55      27     11                  906      324      74
     Sum         649     313    121                10849     3839     869

     Using Slab Decomposition



     bravais-lattice index     =            0
     lattice parameter (alat)  =       4.4077  a.u.
     unit-cell volume          =      60.5491 (a.u.)^3
     number of atoms/cell      =            1
     number of atomic types    =            1
     number of electrons       =        18.00
     number of Kohn-Sham states=           13
     kinetic-energy cutoff     =      60.0000  Ry
     charge density cutoff     =     480.0000  Ry
     scf convergence threshold =      1.0E-06
     mixing beta               =       0.7000
     number of iterations used =            8  TF        mixing
     energy convergence thresh.=      1.0E-05
     force convergence thresh. =      1.0E-04
     press convergence thresh. =      5.0E-01
     Exchange-correlation= PBE
                           (   1   4   3   4   0   0   0)
     nstep                     =           50


     celldm(1)=   4.407654  celldm(2)=   0.000000  celldm(3)=   0.000000
     celldm(4)=   0.000000  celldm(5)=   0.000000  celldm(6)=   0.000000

     crystal axes: (cart. coord. in units of alat)
               a(1) = (   1.000000   0.000000   0.000000 )  
               a(2) = (   0.500000   0.866025   0.000000 )  
               a(3) = (   0.500000   0.288675   0.816497 )  

     reciprocal axes: (cart. coord. in units 2 pi/alat)
               b(1) = (  1.000000 -0.577350 -0.408248 )  
               b(2) = (  0.000000  1.154701 -0.408248 )  
               b(3) = (  0.000000  0.000000  1.224745 )  


     PseudoPot. # 1 for Ni read from file:
     /home/jmgoff/work/automation/qe_pseudos/Ni.upf
     MD5 check sum: caf20d35bef94d268ef04de15446df97
     Pseudo is Ultrasoft + core correction, Zval = 18.0
     Generated using 'atomic' code by A. Dal Corso  v.7.1
     Using radial grid of 1195 points,  6 beta functions with: 
                l(1) =   0
                l(2) =   0
                l(3) =   1
                l(4) =   1
                l(5) =   2
                l(6) =   2
     Q(r) pseudized with 0 coefficients 


     atomic species   valence    mass     pseudopotential
        Ni            18.00    58.69340     Ni( 1.00)

     Starting magnetic structure 
     atomic species   magnetization
        Ni           1.000

     No symmetry found



   Cartesian axes

     site n.     atom                  positions (alat units)
         1           Ni  tau(   1) = (   0.0000000   0.0000000   0.0000000  )

     number of k points=   504  Marzari-Vanderbilt smearing, width (Ry)=  0.0100

     Number of k-points >= 100: set verbosity='high' to print them.

     Dense  grid:    10849 G-vectors     FFT dimensions: (  32,  32,  32)

     Smooth grid:     3839 G-vectors     FFT dimensions: (  24,  24,  24)

     Estimated max dynamical RAM per process >       9.81 MB

     Estimated total dynamical RAM >     230.20 MB

     Check: negative core charge=   -0.000001
     Generating pointlists ...
     new r_m :   0.4125 (alat units)  1.8182 (a.u.) for type    1

     Initial potential from superposition of free atoms

     starting charge      17.9998, renormalised to      18.0000
     Starting wfcs are   10 randomized atomic wfcs +    3 random wfcs

     total cpu time spent up to now is        0.8 secs

     Self-consistent Calculation

     iteration #  1     ecut=    60.00 Ry     beta= 0.70
     Davidson diagonalization with overlap
     ethr =  1.00E-02,  avg # of iterations =  5.1

     negative rho (up, down):  0.000E+00 6.204E-06

     total cpu time spent up to now is        3.5 secs

     total energy              =    -336.16673808 Ry
     estimated scf accuracy    <       7.99773810 Ry

     total magnetization       =     5.60 Bohr mag/cell
     absolute magnetization    =     5.60 Bohr mag/cell

     iteration #  2     ecut=    60.00 Ry     beta= 0.70
     Davidson diagonalization with overlap
     ethr =  1.00E-02,  avg # of iterations =  2.2

     total cpu time spent up to now is        5.4 secs

     total energy              =    -338.89682283 Ry
     estimated scf accuracy    <       4.19793643 Ry

     total magnetization       =     1.22 Bohr mag/cell
     absolute magnetization    =     1.40 Bohr mag/cell

     iteration #  3     ecut=    60.00 Ry     beta= 0.70
     Davidson diagonalization with overlap
     ethr =  1.00E-02,  avg # of iterations =  1.6

     total cpu time spent up to now is        7.1 secs

     total energy              =    -339.50744130 Ry
     estimated scf accuracy    <       0.58037271 Ry

     total magnetization       =     1.40 Bohr mag/cell
     absolute magnetization    =     1.61 Bohr mag/cell

     iteration #  4     ecut=    60.00 Ry     beta= 0.70
     Davidson diagonalization with overlap
     ethr =  3.22E-03,  avg # of iterations =  2.0

     total cpu time spent up to now is        8.9 secs

     total energy              =    -339.55598919 Ry
     estimated scf accuracy    <       9.72541708 Ry

     total magnetization       =     0.66 Bohr mag/cell
     absolute magnetization    =     4.74 Bohr mag/cell

     iteration #  5     ecut=    60.00 Ry     beta= 0.70
     Davidson diagonalization with overlap
     ethr =  3.22E-03,  avg # of iterations =  2.0

     total cpu time spent up to now is       10.5 secs

     total energy              =    -339.53855838 Ry
     estimated scf accuracy    <       2.28619676 Ry

     total magnetization       =     0.72 Bohr mag/cell
     absolute magnetization    =     2.52 Bohr mag/cell

     iteration #  6     ecut=    60.00 Ry     beta= 0.70
     Davidson diagonalization with overlap
     ethr =  3.22E-03,  avg # of iterations =  2.0

     total cpu time spent up to now is       12.2 secs

     total energy              =    -339.57671966 Ry
     estimated scf accuracy    <       1.45139863 Ry

     total magnetization       =     0.68 Bohr mag/cell
     absolute magnetization    =     1.08 Bohr mag/cell

     iteration #  7     ecut=    60.00 Ry     beta= 0.70
     Davidson diagonalization with overlap
     ethr =  3.22E-03,  avg # of iterations =  1.5

     total cpu time spent up to now is       13.9 secs

     total energy              =    -339.50726528 Ry
     estimated scf accuracy    <       3.87393503 Ry

     total magnetization       =     0.67 Bohr mag/cell
     absolute magnetization    =     3.10 Bohr mag/cell

     iteration #  8     ecut=    60.00 Ry     beta= 0.70
     Davidson diagonalization with overlap
     ethr =  3.22E-03,  avg # of iterations =  2.0

     total cpu time spent up to now is       15.6 secs

     total energy              =    -339.56993228 Ry
     estimated scf accuracy    <       0.13142185 Ry

     total magnetization       =     0.71 Bohr mag/cell
     absolute magnetization    =     1.04 Bohr mag/cell

     iteration #  9     ecut=    60.00 Ry     beta= 0.70
     Davidson diagonalization with overlap
     ethr =  7.30E-04,  avg # of iterations =  1.0

     total cpu time spent up to now is       17.0 secs

     total energy              =    -339.57292018 Ry
     estimated scf accuracy    <       0.00725496 Ry

     total magnetization       =     0.71 Bohr mag/cell
     absolute magnetization    =     0.81 Bohr mag/cell

     iteration # 10     ecut=    60.00 Ry     beta= 0.70
     Davidson diagonalization with overlap
     ethr =  4.03E-05,  avg # of iterations =  1.2

     total cpu time spent up to now is       18.5 secs

     total energy              =    -339.57361120 Ry
     estimated scf accuracy    <       0.01363758 Ry

     total magnetization       =     0.71 Bohr mag/cell
     absolute magnetization    =     0.81 Bohr mag/cell

     iteration # 11     ecut=    60.00 Ry     beta= 0.70
     Davidson diagonalization with overlap
     ethr =  4.03E-05,  avg # of iterations =  2.0

     total cpu time spent up to now is       20.1 secs

     total energy              =    -339.57170138 Ry
     estimated scf accuracy    <       0.07607138 Ry

     total magnetization       =     0.71 Bohr mag/cell
     absolute magnetization    =     0.93 Bohr mag/cell

     iteration # 12     ecut=    60.00 Ry     beta= 0.70
     Davidson diagonalization with overlap
     ethr =  4.03E-05,  avg # of iterations =  2.0

     total cpu time spent up to now is       21.8 secs

     total energy              =    -339.57303694 Ry
     estimated scf accuracy    <       0.00038808 Ry

     total magnetization       =     0.70 Bohr mag/cell
     absolute magnetization    =     0.79 Bohr mag/cell

     iteration # 13     ecut=    60.00 Ry     beta= 0.70
     Davidson diagonalization with overlap
     ethr =  2.16E-06,  avg # of iterations =  1.6

     total cpu time spent up to now is       23.5 secs

     total energy              =    -339.57304790 Ry
     estimated scf accuracy    <       0.00047704 Ry

     total magnetization       =     0.70 Bohr mag/cell
     absolute magnetization    =     0.78 Bohr mag/cell

     iteration # 14     ecut=    60.00 Ry     beta= 0.70
     Davidson diagonalization with overlap
     ethr =  2.16E-06,  avg # of iterations =  1.4

     total cpu time spent up to now is       25.1 secs

     total energy              =    -339.57305572 Ry
     estimated scf accuracy    <       0.00013810 Ry

     total magnetization       =     0.70 Bohr mag/cell
     absolute magnetization    =     0.78 Bohr mag/cell

     iteration # 15     ecut=    60.00 Ry     beta= 0.70
     Davidson diagonalization with overlap
     ethr =  7.67E-07,  avg # of iterations =  1.1

     total cpu time spent up to now is       26.5 secs

     total energy              =    -339.57305965 Ry
     estimated scf accuracy    <       0.00002426 Ry

     total magnetization       =     0.70 Bohr mag/cell
     absolute magnetization    =     0.78 Bohr mag/cell

     iteration # 16     ecut=    60.00 Ry     beta= 0.70
     Davidson diagonalization with overlap
     ethr =  1.35E-07,  avg # of iterations =  1.0

     total cpu time spent up to now is       27.9 secs

     total energy              =    -339.57306012 Ry
     estimated scf accuracy    <       0.00000181 Ry

     total magnetization       =     0.70 Bohr mag/cell
     absolute magnetization    =     0.78 Bohr mag/cell

     iteration # 17     ecut=    60.00 Ry     beta= 0.70
     Davidson diagonalization with overlap
     ethr =  1.00E-08,  avg # of iterations =  1.5

     total cpu time spent up to now is       29.5 secs

     total energy              =    -339.57306016 Ry
     estimated scf accuracy    <       0.00000183 Ry

     total magnetization       =     0.70 Bohr mag/cell
     absolute magnetization    =     0.78 Bohr mag/cell

     iteration # 18     ecut=    60.00 Ry     beta= 0.70
     Davidson diagonalization with overlap
     ethr =  1.00E-08,  avg # of iterations =  1.0

     Magnetic moment per site  (integrated on atomic sphere of radius R)
     atom   1 (R=0.412)  charge= 16.5514  magn=  0.7351

     total cpu time spent up to now is       30.9 secs

     End of self-consistent calculation

     Number of k-points >= 100: set verbosity='high' to print the bands.

     the Fermi energy is    22.8754 ev

!    total energy              =    -339.57306072 Ry
     estimated scf accuracy    <       0.00000087 Ry
     smearing contrib. (-TS)   =      -0.00013912 Ry
     internal energy E=F+TS    =    -339.57292160 Ry

     The total energy is F=E-TS. E is the sum of the following terms:
     one-electron contribution =    -162.37321759 Ry
     hartree contribution      =      95.59411104 Ry
     xc contribution           =     -34.48021176 Ry
     ewald contribution        =    -238.31360330 Ry

     total magnetization       =     0.70 Bohr mag/cell
     absolute magnetization    =     0.78 Bohr mag/cell

     convergence has been achieved in  18 iterations

     Forces acting on atoms (cartesian axes, Ry/au):

     atom    1 type  1   force =     0.00000000    0.00000000    0.00000000

     Total force =     0.000000     Total SCF correction =     0.000359


     Computing stress (Cartesian axis) and pressure

          total   stress  (Ry/bohr**3)                   (kbar)     P=      603.75
   0.00410409   0.00000004  -0.00000025          603.73        0.01       -0.04
   0.00000004   0.00410408  -0.00000010            0.01      603.73       -0.02
  -0.00000025  -0.00000010   0.00410450           -0.04       -0.02      603.79


     BFGS Geometry Optimization
     Energy error            =      0.0E+00 Ry
     Gradient error          =      0.0E+00 Ry/Bohr
     Cell gradient error     =      6.0E+02 kbar

     number of scf cycles    =   1
     number of bfgs steps    =   0

     enthalpy           new  =    -339.5730607234 Ry

     new trust radius        =       0.1596924001 bohr
     new conv_thr            =       0.0000010000 Ry

     new unit-cell volume =     81.16484 a.u.^3 (    12.02739 Ang^3 )
     density =      8.10340 g/cm^3

CELL_PARAMETERS (bohr)
   4.859888295   0.000004804  -0.000027802
   2.429948308   4.208788600  -0.000023702
   2.429922834   1.402921894   3.968102534

ATOMIC_POSITIONS (crystal)
Ni            0.0000000000        0.0000000000        0.0000000000



     Writing config-only to output data dir ./out/pwscf.save/
     NEW-OLD atomic charge density approx. for the potential

     Check: negative core charge=   -0.000003
     extrapolated charge   22.57192, renormalised to   18.00000
     Generating pointlists ...

     total cpu time spent up to now is       31.4 secs

     Self-consistent Calculation

     iteration #  1     ecut=    60.00 Ry     beta= 0.70
     Davidson diagonalization with overlap
     c_bands:  1 eigenvalues not converged
     c_bands:  1 eigenvalues not converged
     c_bands:  1 eigenvalues not converged
     c_bands:  1 eigenvalues not converged
     c_bands:  1 eigenvalues not converged
     c_bands:  1 eigenvalues not converged
     c_bands:  1 eigenvalues not converged
     c_bands:  1 eigenvalues not converged
     c_bands:  1 eigenvalues not converged
     c_bands:  1 eigenvalues not converged
     c_bands:  1 eigenvalues not converged
     c_bands:  1 eigenvalues not converged
     c_bands:  1 eigenvalues not converged
     c_bands:  1 eigenvalues not converged
     c_bands:  1 eigenvalues not converged
     c_bands:  1 eigenvalues not converged
     c_bands:  1 eigenvalues not converged
     c_bands:  1 eigenvalues not converged
     c_bands:  1 eigenvalues not converged
     c_bands:  1 eigenvalues not converged
     c_bands:  1 eigenvalues not converged
     c_bands:  1 eigenvalues not converged
     c_bands:  2 eigenvalues not converged
     c_bands:  1 eigenvalues not converged
     c_bands:  2 eigenvalues not converged
     c_bands:  2 eigenvalues not converged
     c_bands:  1 eigenvalues not converged
     c_bands:  1 eigenvalues not converged
     c_bands:  1 eigenvalues not converged
     c_bands:  2 eigenvalues not converged
     c_bands:  1 eigenvalues not converged
     c_bands:  1 eigenvalues not converged
     c_bands:  1 eigenvalues not converged
     c_bands:  1 eigenvalues not converged
     c_bands:  1 eigenvalues not converged
     c_bands:  1 eigenvalues not converged
     c_bands:  1 eigenvalues not converged
     c_bands:  1 eigenvalues not converged
     c_bands:  1 eigenvalues not converged
     c_bands:  1 eigenvalues not converged
     c_bands:  1 eigenvalues not converged
     c_bands:  1 eigenvalues not converged
     c_bands:  1 eigenvalues not converged
     c_bands:  1 eigenvalues not converged
     c_bands:  2 eigenvalues not converged
     c_bands:  2 eigenvalues not converged
     c_bands:  2 eigenvalues not converged
     c_bands:  2 eigenvalues not converged
     c_bands:  1 eigenvalues not converged
     c_bands:  1 eigenvalues not converged
     c_bands:  2 eigenvalues not converged
     c_bands:  2 eigenvalues not converged
     c_bands:  2 eigenvalues not converged
     c_bands:  1 eigenvalues not converged
     c_bands:  1 eigenvalues not converged
     c_bands:  1 eigenvalues not converged
     c_bands:  2 eigenvalues not converged
     c_bands:  1 eigenvalues not converged
     c_bands:  1 eigenvalues not converged
     c_bands:  1 eigenvalues not converged
     c_bands:  1 eigenvalues not converged
     c_bands:  1 eigenvalues not converged
     c_bands:  1 eigenvalues not converged
     c_bands:  1 eigenvalues not converged
     c_bands:  1 eigenvalues not converged
     c_bands:  1 eigenvalues not converged
     c_bands:  2 eigenvalues not converged
     c_bands:  1 eigenvalues not converged
     c_bands:  1 eigenvalues not converged
     c_bands:  1 eigenvalues not converged
     c_bands:  1 eigenvalues not converged
     c_bands:  2 eigenvalues not converged
     c_bands:  1 eigenvalues not converged
     c_bands:  1 eigenvalues not converged
     c_bands:  1 eigenvalues not converged
     c_bands:  1 eigenvalues not converged
     c_bands:  1 eigenvalues not converged
     c_bands:  1 eigenvalues not converged
     c_bands:  2 eigenvalues not converged
     c_bands:  2 eigenvalues not converged
     c_bands:  1 eigenvalues not converged
     c_bands:  1 eigenvalues not converged
     c_bands:  1 eigenvalues not converged
     c_bands:  1 eigenvalues not converged
     c_bands:  2 eigenvalues not converged
     c_bands:  2 eigenvalues not converged
     c_bands:  1 eigenvalues not converged
     c_bands:  1 eigenvalues not converged
     c_bands:  2 eigenvalues not converged
     c_bands:  2 eigenvalues not converged
     c_bands:  1 eigenvalues not converged
     c_bands:  2 eigenvalues not converged
     c_bands:  2 eigenvalues not converged
     c_bands:  1 eigenvalues not converged
     c_bands:  1 eigenvalues not converged
     c_bands:  2 eigenvalues not converged
     c_bands:  2 eigenvalues not converged
     c_bands:  1 eigenvalues not converged
     ethr =  1.00E-06,  avg # of iterations = 15.9

     total cpu time spent up to now is       39.2 secs

     total energy              =    -309.29407458 Ry
     estimated scf accuracy    <      30.59015782 Ry

     total magnetization       =     0.02 Bohr mag/cell
     absolute magnetization    =     0.07 Bohr mag/cell

     iteration #  2     ecut=    60.00 Ry     beta= 0.70
     Davidson diagonalization with overlap
     ethr =  1.00E-02,  avg # of iterations =  4.2
     Minimization algorithm failed to find Fermi energy: reverting to bisection
     Possible cause: smearing is larger than the electronic band-gap.

     total cpu time spent up to now is       42.1 secs

     total energy              =    -342.92880896 Ry
     estimated scf accuracy    <      48.97040482 Ry

     total magnetization       =     0.00 Bohr mag/cell
     absolute magnetization    =     0.26 Bohr mag/cell

     iteration #  3     ecut=    60.00 Ry     beta= 0.70
     Davidson diagonalization with overlap
     ethr =  1.00E-02,  avg # of iterations =  2.0

     total cpu time spent up to now is       44.2 secs

     total energy              =    -344.97406260 Ry
     estimated scf accuracy    <      23.30964998 Ry

     total magnetization       =     0.00 Bohr mag/cell
     absolute magnetization    =     3.69 Bohr mag/cell

     iteration #  4     ecut=    60.00 Ry     beta= 0.70
     Davidson diagonalization with overlap
     ethr =  1.00E-02,  avg # of iterations =  2.0

     negative rho (up, down):  3.942E-02 4.498E-02

     total cpu time spent up to now is       45.8 secs

     total energy              =    -338.02320910 Ry
     estimated scf accuracy    <     208.07669293 Ry

     total magnetization       =     0.00 Bohr mag/cell
     absolute magnetization    =    19.89 Bohr mag/cell

     iteration #  5     ecut=    60.00 Ry     beta= 0.70
     Davidson diagonalization with overlap
     ethr =  1.00E-02,  avg # of iterations =  2.0

     total cpu time spent up to now is       47.5 secs

     total energy              =    -340.82700871 Ry
     estimated scf accuracy    <       7.10743771 Ry

     total magnetization       =    -0.00 Bohr mag/cell
     absolute magnetization    =     0.83 Bohr mag/cell

     iteration #  6     ecut=    60.00 Ry     beta= 0.70
     Davidson diagonalization with overlap
     ethr =  1.00E-02,  avg # of iterations =  1.0

     total cpu time spent up to now is       49.0 secs

     total energy              =    -340.67331344 Ry
     estimated scf accuracy    <       7.08238442 Ry

     total magnetization       =    -0.00 Bohr mag/cell
     absolute magnetization    =     0.71 Bohr mag/cell

     iteration #  7     ecut=    60.00 Ry     beta= 0.70
     Davidson diagonalization with overlap
     ethr =  1.00E-02,  avg # of iterations =  1.1

     total cpu time spent up to now is       50.4 secs

     total energy              =    -340.06734013 Ry
     estimated scf accuracy    <      12.43101282 Ry

     total magnetization       =    -0.00 Bohr mag/cell
     absolute magnetization    =     3.77 Bohr mag/cell

     iteration #  8     ecut=    60.00 Ry     beta= 0.70
     Davidson diagonalization with overlap
     ethr =  1.00E-02,  avg # of iterations =  1.9
     Minimization algorithm failed to find Fermi energy: reverting to bisection
     Possible cause: smearing is larger than the electronic band-gap.

     total cpu time spent up to now is       52.0 secs

     total energy              =    -339.64288107 Ry
     estimated scf accuracy    <       4.13503750 Ry

     total magnetization       =     0.15 Bohr mag/cell
     absolute magnetization    =     0.82 Bohr mag/cell

     iteration #  9     ecut=    60.00 Ry     beta= 0.70
     Davidson diagonalization with overlap
     ethr =  1.00E-02,  avg # of iterations =  1.0

     total cpu time spent up to now is       53.4 secs

     total energy              =    -339.75706963 Ry
     estimated scf accuracy    <       1.39335537 Ry

     total magnetization       =     0.38 Bohr mag/cell
     absolute magnetization    =     0.54 Bohr mag/cell

     iteration # 10     ecut=    60.00 Ry     beta= 0.70
     Davidson diagonalization with overlap
     ethr =  7.74E-03,  avg # of iterations =  1.0

     total cpu time spent up to now is       54.8 secs

     total energy              =    -339.35143487 Ry
     estimated scf accuracy    <       1.26940813 Ry

     total magnetization       =     0.39 Bohr mag/cell
     absolute magnetization    =     0.51 Bohr mag/cell

     iteration # 11     ecut=    60.00 Ry     beta= 0.70
     Davidson diagonalization with overlap
     ethr =  7.05E-03,  avg # of iterations =  2.0

     total cpu time spent up to now is       56.4 secs

     total energy              =    -339.47257776 Ry
     estimated scf accuracy    <       1.85520858 Ry

     total magnetization       =     0.73 Bohr mag/cell
     absolute magnetization    =     2.28 Bohr mag/cell

     iteration # 12     ecut=    60.00 Ry     beta= 0.70
     Davidson diagonalization with overlap
     ethr =  7.05E-03,  avg # of iterations =  1.0

     total cpu time spent up to now is       57.8 secs

     total energy              =    -339.52611352 Ry
     estimated scf accuracy    <       0.29499397 Ry

     total magnetization       =     0.67 Bohr mag/cell
     absolute magnetization    =     1.15 Bohr mag/cell

     iteration # 13     ecut=    60.00 Ry     beta= 0.70
     Davidson diagonalization with overlap
     ethr =  1.64E-03,  avg # of iterations =  1.0

     total cpu time spent up to now is       59.3 secs

     total energy              =    -339.54338325 Ry
     estimated scf accuracy    <       0.18229924 Ry

     total magnetization       =     0.69 Bohr mag/cell
     absolute magnetization    =     0.99 Bohr mag/cell

     iteration # 14     ecut=    60.00 Ry     beta= 0.70
     Davidson diagonalization with overlap
     ethr =  1.01E-03,  avg # of iterations =  1.0

     total cpu time spent up to now is       60.7 secs

     total energy              =    -339.53630379 Ry
     estimated scf accuracy    <       0.11740868 Ry

     total magnetization       =     0.69 Bohr mag/cell
     absolute magnetization    =     0.98 Bohr mag/cell

     iteration # 15     ecut=    60.00 Ry     beta= 0.70
     Davidson diagonalization with overlap
     ethr =  6.52E-04,  avg # of iterations =  1.0

     total cpu time spent up to now is       62.1 secs

     total energy              =    -339.54742417 Ry
     estimated scf accuracy    <       0.00280037 Ry

     total magnetization       =     0.74 Bohr mag/cell
     absolute magnetization    =     0.85 Bohr mag/cell

     iteration # 16     ecut=    60.00 Ry     beta= 0.70
     Davidson diagonalization with overlap
     ethr =  1.56E-05,  avg # of iterations =  2.2

     total cpu time spent up to now is       63.9 secs

     total energy              =    -339.54913812 Ry
     estimated scf accuracy    <       0.00422699 Ry

     total magnetization       =     0.74 Bohr mag/cell
     absolute magnetization    =     0.86 Bohr mag/cell

     iteration # 17     ecut=    60.00 Ry     beta= 0.70
     Davidson diagonalization with overlap
     ethr =  1.56E-05,  avg # of iterations =  2.1

     total cpu time spent up to now is       65.6 secs

     total energy              =    -339.54671387 Ry
     estimated scf accuracy    <       0.03857182 Ry

     total magnetization       =     0.74 Bohr mag/cell
     absolute magnetization    =     0.93 Bohr mag/cell

     iteration # 18     ecut=    60.00 Ry     beta= 0.70
     Davidson diagonalization with overlap
     ethr =  1.56E-05,  avg # of iterations =  2.0

     total cpu time spent up to now is       67.3 secs

     total energy              =    -339.54864570 Ry
     estimated scf accuracy    <       0.00177644 Ry

     total magnetization       =     0.74 Bohr mag/cell
     absolute magnetization    =     0.86 Bohr mag/cell

     iteration # 19     ecut=    60.00 Ry     beta= 0.70
     Davidson diagonalization with overlap
     ethr =  9.87E-06,  avg # of iterations =  1.1

     total cpu time spent up to now is       68.8 secs

     total energy              =    -339.54902079 Ry
     estimated scf accuracy    <       0.00025923 Ry

     total magnetization       =     0.74 Bohr mag/cell
     absolute magnetization    =     0.86 Bohr mag/cell

     iteration # 20     ecut=    60.00 Ry     beta= 0.70
     Davidson diagonalization with overlap
     ethr =  1.44E-06,  avg # of iterations =  1.2

     total cpu time spent up to now is       70.2 secs

     total energy              =    -339.54902073 Ry
     estimated scf accuracy    <       0.00039889 Ry

     total magnetization       =     0.74 Bohr mag/cell
     absolute magnetization    =     0.86 Bohr mag/cell

     iteration # 21     ecut=    60.00 Ry     beta= 0.70
     Davidson diagonalization with overlap
     ethr =  1.44E-06,  avg # of iterations =  1.7

     total cpu time spent up to now is       71.8 secs

     total energy              =    -339.54906530 Ry
     estimated scf accuracy    <       0.00005738 Ry

     total magnetization       =     0.74 Bohr mag/cell
     absolute magnetization    =     0.86 Bohr mag/cell

     iteration # 22     ecut=    60.00 Ry     beta= 0.70
     Davidson diagonalization with overlap
     ethr =  3.19E-07,  avg # of iterations =  1.0

     total cpu time spent up to now is       73.2 secs

     total energy              =    -339.54906565 Ry
     estimated scf accuracy    <       0.00001610 Ry

     total magnetization       =     0.74 Bohr mag/cell
     absolute magnetization    =     0.86 Bohr mag/cell

     iteration # 23     ecut=    60.00 Ry     beta= 0.70
     Davidson diagonalization with overlap
     ethr =  8.94E-08,  avg # of iterations =  1.0

     total cpu time spent up to now is       74.7 secs

     total energy              =    -339.54906603 Ry
     estimated scf accuracy    <       0.00000397 Ry

     total magnetization       =     0.74 Bohr mag/cell
     absolute magnetization    =     0.86 Bohr mag/cell

     iteration # 24     ecut=    60.00 Ry     beta= 0.70
     Davidson diagonalization with overlap
     ethr =  2.21E-08,  avg # of iterations =  1.0

     Magnetic moment per site  (integrated on atomic sphere of radius R)
     atom   1 (R=0.412)  charge= 16.2653  magn=  0.7970

     total cpu time spent up to now is       76.1 secs

     End of self-consistent calculation

     Number of k-points >= 100: set verbosity='high' to print the bands.

     the Fermi energy is    15.9212 ev

!    total energy              =    -339.54906691 Ry
     estimated scf accuracy    <       0.00000092 Ry
     smearing contrib. (-TS)   =      -0.00018246 Ry
     internal energy E=F+TS    =    -339.54888445 Ry

     The total energy is F=E-TS. E is the sum of the following terms:
     one-electron contribution =    -198.51325864 Ry
     hartree contribution      =     109.38179814 Ry
     xc contribution           =     -34.28065756 Ry
     ewald contribution        =    -216.13676640 Ry

     total magnetization       =     0.74 Bohr mag/cell
     absolute magnetization    =     0.86 Bohr mag/cell

     convergence has been achieved in  24 iterations

     Forces acting on atoms (cartesian axes, Ry/au):

     atom    1 type  1   force =     0.00000000    0.00000000    0.00000000

     Total force =     0.000000     Total SCF correction =     0.000348


     Computing stress (Cartesian axis) and pressure

          total   stress  (Ry/bohr**3)                   (kbar)     P=     -950.91
  -0.00646402  -0.00000016   0.00000031         -950.89       -0.02        0.05
  -0.00000016  -0.00646386   0.00000017           -0.02     -950.87        0.02
   0.00000031   0.00000017  -0.00646466            0.05        0.02     -950.98

     Energy error            =      2.4E-02 Ry
     Gradient error          =      0.0E+00 Ry/Bohr
     Cell gradient error     =      9.5E+02 kbar

     number of scf cycles    =   2
     number of bfgs steps    =   1

     enthalpy           old  =    -339.5730607234 Ry
     enthalpy           new  =    -339.5490669104 Ry

     CASE: enthalpy          _new > enthalpy          _old

     new trust radius        =       0.0638228681 bohr
     new conv_thr            =       0.0000010000 Ry

     new unit-cell volume =     67.92359 a.u.^3 (    10.06524 Ang^3 )
     density =      9.68310 g/cm^3

CELL_PARAMETERS (bohr)
   4.579780438   0.000001829  -0.000010582
   2.289891803   3.966206918  -0.000009021
   2.289882107   1.322066065   3.739382818

ATOMIC_POSITIONS (crystal)
Ni            0.0000000000        0.0000000000        0.0000000000



     Writing config-only to output data dir ./out/pwscf.save/
     NEW-OLD atomic charge density approx. for the potential

     Check: negative core charge=   -0.000003
     extrapolated charge   14.49107, renormalised to   18.00000
     Generating pointlists ...

     total cpu time spent up to now is       76.5 secs

     Self-consistent Calculation

     iteration #  1     ecut=    60.00 Ry     beta= 0.70
     Davidson diagonalization with overlap
     ethr =  1.00E-06,  avg # of iterations =  7.9

     total cpu time spent up to now is       81.1 secs

     total energy              =    -324.26770582 Ry
     estimated scf accuracy    <      17.74789927 Ry

     total magnetization       =    -0.00 Bohr mag/cell
     absolute magnetization    =     0.07 Bohr mag/cell

     iteration #  2     ecut=    60.00 Ry     beta= 0.70
     Davidson diagonalization with overlap
     ethr =  1.00E-02,  avg # of iterations =  3.9

     total cpu time spent up to now is       83.7 secs

     total energy              =    -339.08703350 Ry
     estimated scf accuracy    <      36.08778193 Ry

     total magnetization       =     0.03 Bohr mag/cell
     absolute magnetization    =     0.38 Bohr mag/cell

     iteration #  3     ecut=    60.00 Ry     beta= 0.70
     Davidson diagonalization with overlap
     ethr =  1.00E-02,  avg # of iterations =  3.2

     total cpu time spent up to now is       86.0 secs

     total energy              =    -341.24163536 Ry
     estimated scf accuracy    <      10.98278156 Ry

     total magnetization       =     0.19 Bohr mag/cell
     absolute magnetization    =     3.20 Bohr mag/cell

     iteration #  4     ecut=    60.00 Ry     beta= 0.70
     Davidson diagonalization with overlap
     ethr =  1.00E-02,  avg # of iterations =  1.0

     total cpu time spent up to now is       87.4 secs

     total energy              =    -340.00158304 Ry
     estimated scf accuracy    <      10.49567700 Ry

     total magnetization       =     0.19 Bohr mag/cell
     absolute magnetization    =     3.05 Bohr mag/cell

     iteration #  5     ecut=    60.00 Ry     beta= 0.70
     Davidson diagonalization with overlap
     ethr =  1.00E-02,  avg # of iterations =  2.0

     total cpu time spent up to now is       89.1 secs

     total energy              =    -340.20010257 Ry
     estimated scf accuracy    <       3.03831719 Ry

     total magnetization       =     0.32 Bohr mag/cell
     absolute magnetization    =     0.71 Bohr mag/cell

     iteration #  6     ecut=    60.00 Ry     beta= 0.70
     Davidson diagonalization with overlap
     ethr =  1.00E-02,  avg # of iterations =  1.0

     total cpu time spent up to now is       90.5 secs

     total energy              =    -340.01172798 Ry
     estimated scf accuracy    <       3.11012282 Ry

     total magnetization       =     0.33 Bohr mag/cell
     absolute magnetization    =     1.07 Bohr mag/cell

     iteration #  7     ecut=    60.00 Ry     beta= 0.70
     Davidson diagonalization with overlap
     ethr =  1.00E-02,  avg # of iterations =  1.0

     total cpu time spent up to now is       91.9 secs

     total energy              =    -339.74331737 Ry
     estimated scf accuracy    <       2.11518123 Ry

     total magnetization       =     0.38 Bohr mag/cell
     absolute magnetization    =     0.47 Bohr mag/cell

     iteration #  8     ecut=    60.00 Ry     beta= 0.70
     Davidson diagonalization with overlap
     ethr =  1.00E-02,  avg # of iterations =  1.0

     total cpu time spent up to now is       93.3 secs

     total energy              =    -339.74750559 Ry
     estimated scf accuracy    <       0.92175931 Ry

     total magnetization       =     0.52 Bohr mag/cell
     absolute magnetization    =     0.54 Bohr mag/cell

     iteration #  9     ecut=    60.00 Ry     beta= 0.70
     Davidson diagonalization with overlap
     ethr =  5.12E-03,  avg # of iterations =  1.0

     total cpu time spent up to now is       94.7 secs

     total energy              =    -339.70753932 Ry
     estimated scf accuracy    <       0.99020471 Ry

     total magnetization       =     0.59 Bohr mag/cell
     absolute magnetization    =     1.03 Bohr mag/cell

     iteration # 10     ecut=    60.00 Ry     beta= 0.70
     Davidson diagonalization with overlap
     ethr =  5.12E-03,  avg # of iterations =  1.0

     total cpu time spent up to now is       96.1 secs

     total energy              =    -339.44122209 Ry
     estimated scf accuracy    <       0.59030777 Ry

     total magnetization       =     0.66 Bohr mag/cell
     absolute magnetization    =     0.68 Bohr mag/cell

     iteration # 11     ecut=    60.00 Ry     beta= 0.70
     Davidson diagonalization with overlap
     ethr =  3.28E-03,  avg # of iterations =  2.0

     total cpu time spent up to now is       97.9 secs

     total energy              =    -339.58675528 Ry
     estimated scf accuracy    <       0.06812815 Ry

     total magnetization       =     0.63 Bohr mag/cell
     absolute magnetization    =     0.69 Bohr mag/cell

     iteration # 12     ecut=    60.00 Ry     beta= 0.70
     Davidson diagonalization with overlap
     ethr =  3.78E-04,  avg # of iterations =  1.2

     total cpu time spent up to now is       99.3 secs

     total energy              =    -339.58493180 Ry
     estimated scf accuracy    <       0.02099033 Ry

     total magnetization       =     0.64 Bohr mag/cell
     absolute magnetization    =     0.71 Bohr mag/cell

     iteration # 13     ecut=    60.00 Ry     beta= 0.70
     Davidson diagonalization with overlap
     ethr =  1.17E-04,  avg # of iterations =  2.0

     total cpu time spent up to now is      101.0 secs

     total energy              =    -339.58631631 Ry
     estimated scf accuracy    <       0.02609618 Ry

     total magnetization       =     0.68 Bohr mag/cell
     absolute magnetization    =     0.78 Bohr mag/cell

     iteration # 14     ecut=    60.00 Ry     beta= 0.70
     Davidson diagonalization with overlap
     ethr =  1.17E-04,  avg # of iterations =  2.0

     total cpu time spent up to now is      102.7 secs

     total energy              =    -339.58629018 Ry
     estimated scf accuracy    <       0.09582619 Ry

     total magnetization       =     0.68 Bohr mag/cell
     absolute magnetization    =     0.84 Bohr mag/cell

     iteration # 15     ecut=    60.00 Ry     beta= 0.70
     Davidson diagonalization with overlap
     ethr =  1.17E-04,  avg # of iterations =  2.0

     total cpu time spent up to now is      104.4 secs

     total energy              =    -339.58876497 Ry
     estimated scf accuracy    <       0.01075222 Ry

     total magnetization       =     0.69 Bohr mag/cell
     absolute magnetization    =     0.77 Bohr mag/cell

     iteration # 16     ecut=    60.00 Ry     beta= 0.70
     Davidson diagonalization with overlap
     ethr =  5.97E-05,  avg # of iterations =  1.0

     total cpu time spent up to now is      105.8 secs

     total energy              =    -339.58820751 Ry
     estimated scf accuracy    <       0.03411072 Ry

     total magnetization       =     0.69 Bohr mag/cell
     absolute magnetization    =     0.82 Bohr mag/cell

     iteration # 17     ecut=    60.00 Ry     beta= 0.70
     Davidson diagonalization with overlap
     ethr =  5.97E-05,  avg # of iterations =  1.5

     total cpu time spent up to now is      107.4 secs

     total energy              =    -339.58829981 Ry
     estimated scf accuracy    <       0.01696387 Ry

     total magnetization       =     0.69 Bohr mag/cell
     absolute magnetization    =     0.76 Bohr mag/cell

     iteration # 18     ecut=    60.00 Ry     beta= 0.70
     Davidson diagonalization with overlap
     ethr =  5.97E-05,  avg # of iterations =  1.4

     total cpu time spent up to now is      109.0 secs

     total energy              =    -339.58926518 Ry
     estimated scf accuracy    <       0.00718080 Ry

     total magnetization       =     0.70 Bohr mag/cell
     absolute magnetization    =     0.78 Bohr mag/cell

     iteration # 19     ecut=    60.00 Ry     beta= 0.70
     Davidson diagonalization with overlap
     ethr =  3.99E-05,  avg # of iterations =  2.0

     total cpu time spent up to now is      110.7 secs

     total energy              =    -339.58685723 Ry
     estimated scf accuracy    <       0.10773490 Ry

     total magnetization       =     0.72 Bohr mag/cell
     absolute magnetization    =     0.98 Bohr mag/cell

     iteration # 20     ecut=    60.00 Ry     beta= 0.70
     Davidson diagonalization with overlap
     ethr =  3.99E-05,  avg # of iterations =  2.0

     total cpu time spent up to now is      112.4 secs

     total energy              =    -339.58887243 Ry
     estimated scf accuracy    <       0.00096705 Ry

     total magnetization       =     0.74 Bohr mag/cell
     absolute magnetization    =     0.82 Bohr mag/cell

     iteration # 21     ecut=    60.00 Ry     beta= 0.70
     Davidson diagonalization with overlap
     ethr =  5.37E-06,  avg # of iterations =  1.0

     total cpu time spent up to now is      113.9 secs

     total energy              =    -339.58892202 Ry
     estimated scf accuracy    <       0.00013960 Ry

     total magnetization       =     0.74 Bohr mag/cell
     absolute magnetization    =     0.82 Bohr mag/cell

     iteration # 22     ecut=    60.00 Ry     beta= 0.70
     Davidson diagonalization with overlap
     ethr =  7.76E-07,  avg # of iterations =  1.0

     total cpu time spent up to now is      115.3 secs

     total energy              =    -339.58891834 Ry
     estimated scf accuracy    <       0.00029081 Ry

     total magnetization       =     0.74 Bohr mag/cell
     absolute magnetization    =     0.82 Bohr mag/cell

     iteration # 23     ecut=    60.00 Ry     beta= 0.70
     Davidson diagonalization with overlap
     ethr =  7.76E-07,  avg # of iterations =  1.0

     total cpu time spent up to now is      116.7 secs

     total energy              =    -339.58892161 Ry
     estimated scf accuracy    <       0.00005952 Ry

     total magnetization       =     0.74 Bohr mag/cell
     absolute magnetization    =     0.82 Bohr mag/cell

     iteration # 24     ecut=    60.00 Ry     beta= 0.70
     Davidson diagonalization with overlap
     ethr =  3.31E-07,  avg # of iterations =  1.0

     total cpu time spent up to now is      118.1 secs

     total energy              =    -339.58892249 Ry
     estimated scf accuracy    <       0.00000691 Ry

     total magnetization       =     0.74 Bohr mag/cell
     absolute magnetization    =     0.82 Bohr mag/cell

     iteration # 25     ecut=    60.00 Ry     beta= 0.70
     Davidson diagonalization with overlap
     ethr =  3.84E-08,  avg # of iterations =  1.2

     total cpu time spent up to now is      119.6 secs

     total energy              =    -339.58892280 Ry
     estimated scf accuracy    <       0.00000162 Ry

     total magnetization       =     0.74 Bohr mag/cell
     absolute magnetization    =     0.82 Bohr mag/cell

     iteration # 26     ecut=    60.00 Ry     beta= 0.70
     Davidson diagonalization with overlap
     ethr =  9.00E-09,  avg # of iterations =  1.0

     total cpu time spent up to now is      121.0 secs

     total energy              =    -339.58892273 Ry
     estimated scf accuracy    <       0.00000264 Ry

     total magnetization       =     0.74 Bohr mag/cell
     absolute magnetization    =     0.82 Bohr mag/cell

     iteration # 27     ecut=    60.00 Ry     beta= 0.70
     Davidson diagonalization with overlap
     ethr =  9.00E-09,  avg # of iterations =  1.0

     Magnetic moment per site  (integrated on atomic sphere of radius R)
     atom   1 (R=0.412)  charge= 16.4134  magn=  0.7773

     total cpu time spent up to now is      122.5 secs

     End of self-consistent calculation

     Number of k-points >= 100: set verbosity='high' to print the bands.

     the Fermi energy is    19.8942 ev

!    total energy              =    -339.58892282 Ry
     estimated scf accuracy    <       0.00000035 Ry
     smearing contrib. (-TS)   =      -0.00014709 Ry
     internal energy E=F+TS    =    -339.58877573 Ry

     The total energy is F=E-TS. E is the sum of the following terms:
     one-electron contribution =    -176.82360406 Ry
     hartree contribution      =     100.97750160 Ry
     xc contribution           =     -34.38615652 Ry
     ewald contribution        =    -229.35651676 Ry

     total magnetization       =     0.74 Bohr mag/cell
     absolute magnetization    =     0.82 Bohr mag/cell

     convergence has been achieved in  27 iterations

     Forces acting on atoms (cartesian axes, Ry/au):

     atom    1 type  1   force =     0.00000000    0.00000000    0.00000000

     Total force =     0.000000     Total SCF correction =     0.000732


     Computing stress (Cartesian axis) and pressure

          total   stress  (Ry/bohr**3)                   (kbar)     P=       43.65
   0.00029679  -0.00000016   0.00000003           43.66       -0.02        0.00
  -0.00000016   0.00029651   0.00000033           -0.02       43.62        0.05
   0.00000003   0.00000033   0.00029678            0.00        0.05       43.66

     Energy error            =      1.6E-02 Ry
     Gradient error          =      0.0E+00 Ry/Bohr
     Cell gradient error     =      4.4E+01 kbar

     number of scf cycles    =   3
     number of bfgs steps    =   1

     enthalpy           old  =    -339.5730607234 Ry
     enthalpy           new  =    -339.5889228226 Ry

     CASE: enthalpy          _new < enthalpy          _old

     new trust radius        =       0.0052492057 bohr
     new conv_thr            =       0.0000000010 Ry

     new unit-cell volume =     68.57399 a.u.^3 (    10.16162 Ang^3 )
     density =      9.59126 g/cm^3

CELL_PARAMETERS (bohr)
   4.594365138  -0.000018810  -0.000004934
   2.297166279   3.978796613   0.000031612
   2.297173111   1.326291397   3.751303477

ATOMIC_POSITIONS (crystal)
Ni            0.0000000000        0.0000000000        0.0000000000



     Writing config-only to output data dir ./out/pwscf.save/
     NEW-OLD atomic charge density approx. for the potential

     Check: negative core charge=   -0.000003
     extrapolated charge   18.17072, renormalised to   18.00000
     Generating pointlists ...

     total cpu time spent up to now is      123.0 secs

     Self-consistent Calculation

     iteration #  1     ecut=    60.00 Ry     beta= 0.70
     Davidson diagonalization with overlap
     ethr =  1.00E-06,  avg # of iterations =  4.5

     total cpu time spent up to now is      126.0 secs

     total energy              =    -339.48177760 Ry
     estimated scf accuracy    <       0.12411793 Ry

     total magnetization       =     0.75 Bohr mag/cell
     absolute magnetization    =     0.85 Bohr mag/cell

     iteration #  2     ecut=    60.00 Ry     beta= 0.70
     Davidson diagonalization with overlap
     ethr =  6.90E-04,  avg # of iterations =  2.5

     total cpu time spent up to now is      128.0 secs

     total energy              =    -339.64213201 Ry
     estimated scf accuracy    <       0.74947575 Ry

     total magnetization       =     0.54 Bohr mag/cell
     absolute magnetization    =     1.05 Bohr mag/cell

     iteration #  3     ecut=    60.00 Ry     beta= 0.70
     Davidson diagonalization with overlap
     ethr =  6.90E-04,  avg # of iterations =  2.0

     total cpu time spent up to now is      129.9 secs

     total energy              =    -339.21655336 Ry
     estimated scf accuracy    <      21.73052744 Ry

     total magnetization       =     0.52 Bohr mag/cell
     absolute magnetization    =     6.83 Bohr mag/cell

     iteration #  4     ecut=    60.00 Ry     beta= 0.70
     Davidson diagonalization with overlap
     ethr =  6.90E-04,  avg # of iterations =  2.0

     total cpu time spent up to now is      131.7 secs

     total energy              =    -339.59323448 Ry
     estimated scf accuracy    <       0.13361423 Ry

     total magnetization       =     0.64 Bohr mag/cell
     absolute magnetization    =     0.80 Bohr mag/cell

     iteration #  5     ecut=    60.00 Ry     beta= 0.70
     Davidson diagonalization with overlap
     ethr =  6.90E-04,  avg # of iterations =  1.0

     total cpu time spent up to now is      133.1 secs

     total energy              =    -339.59857572 Ry
     estimated scf accuracy    <       0.06974100 Ry

     total magnetization       =     0.65 Bohr mag/cell
     absolute magnetization    =     0.78 Bohr mag/cell

     iteration #  6     ecut=    60.00 Ry     beta= 0.70
     Davidson diagonalization with overlap
     ethr =  3.87E-04,  avg # of iterations =  1.0

     total cpu time spent up to now is      134.6 secs

     total energy              =    -339.58966829 Ry
     estimated scf accuracy    <       0.06143530 Ry

     total magnetization       =     0.65 Bohr mag/cell
     absolute magnetization    =     0.76 Bohr mag/cell

     iteration #  7     ecut=    60.00 Ry     beta= 0.70
     Davidson diagonalization with overlap
     ethr =  3.41E-04,  avg # of iterations =  1.0

     total cpu time spent up to now is      136.0 secs

     total energy              =    -339.59077897 Ry
     estimated scf accuracy    <       0.01928438 Ry

     total magnetization       =     0.69 Bohr mag/cell
     absolute magnetization    =     0.79 Bohr mag/cell

     iteration #  8     ecut=    60.00 Ry     beta= 0.70
     Davidson diagonalization with overlap
     ethr =  1.07E-04,  avg # of iterations =  1.0

     total cpu time spent up to now is      137.4 secs

     total energy              =    -339.59092571 Ry
     estimated scf accuracy    <       0.01325649 Ry

     total magnetization       =     0.70 Bohr mag/cell
     absolute magnetization    =     0.79 Bohr mag/cell

     iteration #  9     ecut=    60.00 Ry     beta= 0.70
     Davidson diagonalization with overlap
     ethr =  7.36E-05,  avg # of iterations =  1.0

     total cpu time spent up to now is      138.8 secs

     total energy              =    -339.59040557 Ry
     estimated scf accuracy    <       0.01241346 Ry

     total magnetization       =     0.70 Bohr mag/cell
     absolute magnetization    =     0.79 Bohr mag/cell

     iteration # 10     ecut=    60.00 Ry     beta= 0.70
     Davidson diagonalization with overlap
     ethr =  6.90E-05,  avg # of iterations =  1.0

     total cpu time spent up to now is      140.2 secs

     total energy              =    -339.58785723 Ry
     estimated scf accuracy    <       0.00779488 Ry

     total magnetization       =     0.70 Bohr mag/cell
     absolute magnetization    =     0.80 Bohr mag/cell

     iteration # 11     ecut=    60.00 Ry     beta= 0.70
     Davidson diagonalization with overlap
     ethr =  4.33E-05,  avg # of iterations =  1.5

     total cpu time spent up to now is      141.8 secs

     total energy              =    -339.58897665 Ry
     estimated scf accuracy    <       0.00132026 Ry

     total magnetization       =     0.74 Bohr mag/cell
     absolute magnetization    =     0.83 Bohr mag/cell

     iteration # 12     ecut=    60.00 Ry     beta= 0.70
     Davidson diagonalization with overlap
     ethr =  7.33E-06,  avg # of iterations =  1.0

     total cpu time spent up to now is      143.2 secs

     total energy              =    -339.58899065 Ry
     estimated scf accuracy    <       0.00056090 Ry

     total magnetization       =     0.74 Bohr mag/cell
     absolute magnetization    =     0.83 Bohr mag/cell

     iteration # 13     ecut=    60.00 Ry     beta= 0.70
     Davidson diagonalization with overlap
     ethr =  3.12E-06,  avg # of iterations =  1.0

     total cpu time spent up to now is      144.6 secs

     total energy              =    -339.58900565 Ry
     estimated scf accuracy    <       0.00000575 Ry

     total magnetization       =     0.74 Bohr mag/cell
     absolute magnetization    =     0.83 Bohr mag/cell

     iteration # 14     ecut=    60.00 Ry     beta= 0.70
     Davidson diagonalization with overlap
     ethr =  3.20E-08,  avg # of iterations =  3.2

     total cpu time spent up to now is      146.6 secs

     total energy              =    -339.58900703 Ry
     estimated scf accuracy    <       0.00000223 Ry

     total magnetization       =     0.74 Bohr mag/cell
     absolute magnetization    =     0.83 Bohr mag/cell

     iteration # 15     ecut=    60.00 Ry     beta= 0.70
     Davidson diagonalization with overlap
     ethr =  1.24E-08,  avg # of iterations =  2.0

     total cpu time spent up to now is      148.3 secs

     total energy              =    -339.58900761 Ry
     estimated scf accuracy    <       0.00000676 Ry

     total magnetization       =     0.74 Bohr mag/cell
     absolute magnetization    =     0.83 Bohr mag/cell

     iteration # 16     ecut=    60.00 Ry     beta= 0.70
     Davidson diagonalization with overlap
     ethr =  1.24E-08,  avg # of iterations =  2.0

     total cpu time spent up to now is      150.1 secs

     total energy              =    -339.58900628 Ry
     estimated scf accuracy    <       0.00004943 Ry

     total magnetization       =     0.74 Bohr mag/cell
     absolute magnetization    =     0.83 Bohr mag/cell

     iteration # 17     ecut=    60.00 Ry     beta= 0.70
     Davidson diagonalization with overlap
     ethr =  1.24E-08,  avg # of iterations =  2.0

     total cpu time spent up to now is      151.8 secs

     total energy              =    -339.58900721 Ry
     estimated scf accuracy    <       0.00000023 Ry

     total magnetization       =     0.74 Bohr mag/cell
     absolute magnetization    =     0.83 Bohr mag/cell

     iteration # 18     ecut=    60.00 Ry     beta= 0.70
     Davidson diagonalization with overlap
     ethr =  1.30E-09,  avg # of iterations =  1.9

     total cpu time spent up to now is      153.6 secs

     total energy              =    -339.58900728 Ry
     estimated scf accuracy    <       0.00000104 Ry

     total magnetization       =     0.74 Bohr mag/cell
     absolute magnetization    =     0.83 Bohr mag/cell

     iteration # 19     ecut=    60.00 Ry     beta= 0.70
     Davidson diagonalization with overlap
     ethr =  1.30E-09,  avg # of iterations =  1.9

     total cpu time spent up to now is      155.3 secs

     total energy              =    -339.58900716 Ry
     estimated scf accuracy    <       0.00000394 Ry

     total magnetization       =     0.74 Bohr mag/cell
     absolute magnetization    =     0.83 Bohr mag/cell

     iteration # 20     ecut=    60.00 Ry     beta= 0.70
     Davidson diagonalization with overlap
     ethr =  1.30E-09,  avg # of iterations =  2.0

     total cpu time spent up to now is      157.0 secs

     total energy              =    -339.58900724 Ry
     estimated scf accuracy    <       0.00000003 Ry

     total magnetization       =     0.74 Bohr mag/cell
     absolute magnetization    =     0.83 Bohr mag/cell

     iteration # 21     ecut=    60.00 Ry     beta= 0.70
     Davidson diagonalization with overlap
     ethr =  1.94E-10,  avg # of iterations =  1.0

     total cpu time spent up to now is      158.4 secs

     total energy              =    -339.58900724 Ry
     estimated scf accuracy    <       0.00000001 Ry

     total magnetization       =     0.74 Bohr mag/cell
     absolute magnetization    =     0.83 Bohr mag/cell

     iteration # 22     ecut=    60.00 Ry     beta= 0.70
     Davidson diagonalization with overlap
     ethr =  5.73E-11,  avg # of iterations =  1.9

     total cpu time spent up to now is      160.1 secs

     total energy              =    -339.58900724 Ry
     estimated scf accuracy    <       0.00000005 Ry

     total magnetization       =     0.74 Bohr mag/cell
     absolute magnetization    =     0.83 Bohr mag/cell

     iteration # 23     ecut=    60.00 Ry     beta= 0.70
     Davidson diagonalization with overlap
     ethr =  5.73E-11,  avg # of iterations =  1.0

     total cpu time spent up to now is      161.5 secs

     total energy              =    -339.58900724 Ry
     estimated scf accuracy    <       0.00000005 Ry

     total magnetization       =     0.74 Bohr mag/cell
     absolute magnetization    =     0.83 Bohr mag/cell

     iteration # 24     ecut=    60.00 Ry     beta= 0.70
     Davidson diagonalization with overlap
     ethr =  5.73E-11,  avg # of iterations =  1.0

     total cpu time spent up to now is      162.9 secs

     total energy              =    -339.58900724 Ry
     estimated scf accuracy    <       0.00000006 Ry

     total magnetization       =     0.74 Bohr mag/cell
     absolute magnetization    =     0.83 Bohr mag/cell

     iteration # 25     ecut=    60.00 Ry     beta= 0.70
     Davidson diagonalization with overlap
     ethr =  5.73E-11,  avg # of iterations =  1.0

     total cpu time spent up to now is      164.4 secs

     total energy              =    -339.58900724 Ry
     estimated scf accuracy    <       0.00000012 Ry

     total magnetization       =     0.74 Bohr mag/cell
     absolute magnetization    =     0.83 Bohr mag/cell

     iteration # 26     ecut=    60.00 Ry     beta= 0.70
     Davidson diagonalization with overlap
     ethr =  5.73E-11,  avg # of iterations =  1.0

     total cpu time spent up to now is      165.7 secs

     total energy              =    -339.58900724 Ry
     estimated scf accuracy    <       0.00000006 Ry

     total magnetization       =     0.74 Bohr mag/cell
     absolute magnetization    =     0.83 Bohr mag/cell

     iteration # 27     ecut=    60.00 Ry     beta= 0.70
     Davidson diagonalization with overlap
     ethr =  5.73E-11,  avg # of iterations =  1.0

     total cpu time spent up to now is      167.1 secs

     total energy              =    -339.58900724 Ry
     estimated scf accuracy    <       0.00000003 Ry

     total magnetization       =     0.74 Bohr mag/cell
     absolute magnetization    =     0.83 Bohr mag/cell

     iteration # 28     ecut=    60.00 Ry     beta= 0.70
     Davidson diagonalization with overlap
     ethr =  5.73E-11,  avg # of iterations =  1.3

     total cpu time spent up to now is      168.6 secs

     total energy              =    -339.58900724 Ry
     estimated scf accuracy    <          6.5E-09 Ry

     total magnetization       =     0.74 Bohr mag/cell
     absolute magnetization    =     0.83 Bohr mag/cell

     iteration # 29     ecut=    60.00 Ry     beta= 0.70
     Davidson diagonalization with overlap
     ethr =  3.63E-11,  avg # of iterations =  1.0

     total cpu time spent up to now is      170.0 secs

     total energy              =    -339.58900724 Ry
     estimated scf accuracy    <          1.9E-09 Ry

     total magnetization       =     0.74 Bohr mag/cell
     absolute magnetization    =     0.83 Bohr mag/cell

     iteration # 30     ecut=    60.00 Ry     beta= 0.70
     Davidson diagonalization with overlap
     ethr =  1.08E-11,  avg # of iterations =  1.0

     total cpu time spent up to now is      171.5 secs

     total energy              =    -339.58900724 Ry
     estimated scf accuracy    <          2.5E-09 Ry

     total magnetization       =     0.74 Bohr mag/cell
     absolute magnetization    =     0.83 Bohr mag/cell

     iteration # 31     ecut=    60.00 Ry     beta= 0.70
     Davidson diagonalization with overlap
     ethr =  1.08E-11,  avg # of iterations =  1.0

     Magnetic moment per site  (integrated on atomic sphere of radius R)
     atom   1 (R=0.412)  charge= 16.4035  magn=  0.7792

     total cpu time spent up to now is      172.8 secs

     End of self-consistent calculation

     Number of k-points >= 100: set verbosity='high' to print the bands.

     the Fermi energy is    19.6625 ev

!    total energy              =    -339.58900724 Ry
     estimated scf accuracy    <          4.8E-10 Ry
     smearing contrib. (-TS)   =      -0.00014650 Ry
     internal energy E=F+TS    =    -339.58886074 Ry

     The total energy is F=E-TS. E is the sum of the following terms:
     one-electron contribution =    -178.00640930 Ry
     hartree contribution      =     101.42595621 Ry
     xc contribution           =     -34.37932499 Ry
     ewald contribution        =    -228.62908265 Ry

     total magnetization       =     0.74 Bohr mag/cell
     absolute magnetization    =     0.83 Bohr mag/cell

     convergence has been achieved in  31 iterations

     Forces acting on atoms (cartesian axes, Ry/au):

     atom    1 type  1   force =     0.00000000    0.00000000    0.00000000

     Total force =     0.000000     Total SCF correction =     0.000021


     Computing stress (Cartesian axis) and pressure

          total   stress  (Ry/bohr**3)                   (kbar)     P=       -4.05
  -0.00002764   0.00000017   0.00000006           -4.07        0.03        0.01
   0.00000017  -0.00002723  -0.00000033            0.03       -4.01       -0.05
   0.00000006  -0.00000033  -0.00002774            0.01       -0.05       -4.08

     Energy error            =      8.4E-05 Ry
     Gradient error          =      0.0E+00 Ry/Bohr
     Cell gradient error     =      4.1E+00 kbar

     number of scf cycles    =   4
     number of bfgs steps    =   2

     enthalpy           old  =    -339.5889228226 Ry
     enthalpy           new  =    -339.5890072407 Ry

     CASE: enthalpy          _new < enthalpy          _old

     new trust radius        =       0.0004569114 bohr
     new conv_thr            =       0.0000000010 Ry

     new unit-cell volume =     68.51828 a.u.^3 (    10.15336 Ang^3 )
     density =      9.59906 g/cm^3

CELL_PARAMETERS (bohr)
   4.593109075   0.000000164   0.000001673
   2.296554680   3.977757325   0.000003784
   2.296555951   1.325921941   3.750261921

ATOMIC_POSITIONS (crystal)
Ni            0.0000000000        0.0000000000        0.0000000000



     Writing config-only to output data dir ./out/pwscf.save/
     NEW-OLD atomic charge density approx. for the potential

     Check: negative core charge=   -0.000003
     extrapolated charge   17.98536, renormalised to   18.00000
     Generating pointlists ...

     total cpu time spent up to now is      173.4 secs

     Self-consistent Calculation

     iteration #  1     ecut=    60.00 Ry     beta= 0.70
     Davidson diagonalization with overlap
     ethr =  1.00E-06,  avg # of iterations =  2.2

     total cpu time spent up to now is      175.4 secs

     total energy              =    -339.58819675 Ry
     estimated scf accuracy    <       0.00094813 Ry

     total magnetization       =     0.73 Bohr mag/cell
     absolute magnetization    =     0.82 Bohr mag/cell

     iteration #  2     ecut=    60.00 Ry     beta= 0.70
     Davidson diagonalization with overlap
     ethr =  5.27E-06,  avg # of iterations =  2.4

     total cpu time spent up to now is      177.4 secs

     total energy              =    -339.58907531 Ry
     estimated scf accuracy    <       0.00409452 Ry

     total magnetization       =     0.74 Bohr mag/cell
     absolute magnetization    =     0.83 Bohr mag/cell

     iteration #  3     ecut=    60.00 Ry     beta= 0.70
     Davidson diagonalization with overlap
     ethr =  5.27E-06,  avg # of iterations =  2.0

     total cpu time spent up to now is      179.2 secs

     total energy              =    -339.58790735 Ry
     estimated scf accuracy    <       0.06236482 Ry

     total magnetization       =     0.74 Bohr mag/cell
     absolute magnetization    =     0.95 Bohr mag/cell

     iteration #  4     ecut=    60.00 Ry     beta= 0.70
     Davidson diagonalization with overlap
     ethr =  5.27E-06,  avg # of iterations =  2.0

     total cpu time spent up to now is      181.0 secs

     total energy              =    -339.58905905 Ry
     estimated scf accuracy    <       0.00049826 Ry

     total magnetization       =     0.74 Bohr mag/cell
     absolute magnetization    =     0.83 Bohr mag/cell

     iteration #  5     ecut=    60.00 Ry     beta= 0.70
     Davidson diagonalization with overlap
     ethr =  2.77E-06,  avg # of iterations =  1.0

     total cpu time spent up to now is      182.4 secs

     total energy              =    -339.58901094 Ry
     estimated scf accuracy    <       0.00035908 Ry

     total magnetization       =     0.74 Bohr mag/cell
     absolute magnetization    =     0.83 Bohr mag/cell

     iteration #  6     ecut=    60.00 Ry     beta= 0.70
     Davidson diagonalization with overlap
     ethr =  1.99E-06,  avg # of iterations =  1.0

     total cpu time spent up to now is      183.8 secs

     total energy              =    -339.58902376 Ry
     estimated scf accuracy    <       0.00010707 Ry

     total magnetization       =     0.74 Bohr mag/cell
     absolute magnetization    =     0.83 Bohr mag/cell

     iteration #  7     ecut=    60.00 Ry     beta= 0.70
     Davidson diagonalization with overlap
     ethr =  5.95E-07,  avg # of iterations =  1.0

     total cpu time spent up to now is      185.2 secs

     total energy              =    -339.58902338 Ry
     estimated scf accuracy    <       0.00010819 Ry

     total magnetization       =     0.74 Bohr mag/cell
     absolute magnetization    =     0.83 Bohr mag/cell

     iteration #  8     ecut=    60.00 Ry     beta= 0.70
     Davidson diagonalization with overlap
     ethr =  5.95E-07,  avg # of iterations =  1.0

     total cpu time spent up to now is      186.6 secs

     total energy              =    -339.58901877 Ry
     estimated scf accuracy    <       0.00008901 Ry

     total magnetization       =     0.74 Bohr mag/cell
     absolute magnetization    =     0.83 Bohr mag/cell

     iteration #  9     ecut=    60.00 Ry     beta= 0.70
     Davidson diagonalization with overlap
     ethr =  4.95E-07,  avg # of iterations =  1.0

     total cpu time spent up to now is      188.0 secs

     total energy              =    -339.58901090 Ry
     estimated scf accuracy    <       0.00005907 Ry

     total magnetization       =     0.74 Bohr mag/cell
     absolute magnetization    =     0.83 Bohr mag/cell

     iteration # 10     ecut=    60.00 Ry     beta= 0.70
     Davidson diagonalization with overlap
     ethr =  3.28E-07,  avg # of iterations =  1.0

     total cpu time spent up to now is      189.4 secs

     total energy              =    -339.58900415 Ry
     estimated scf accuracy    <       0.00002330 Ry

     total magnetization       =     0.74 Bohr mag/cell
     absolute magnetization    =     0.83 Bohr mag/cell

     iteration # 11     ecut=    60.00 Ry     beta= 0.70
     Davidson diagonalization with overlap
     ethr =  1.29E-07,  avg # of iterations =  1.8

     total cpu time spent up to now is      191.0 secs

     total energy              =    -339.58900771 Ry
     estimated scf accuracy    <       0.00000210 Ry

     total magnetization       =     0.74 Bohr mag/cell
     absolute magnetization    =     0.83 Bohr mag/cell

     iteration # 12     ecut=    60.00 Ry     beta= 0.70
     Davidson diagonalization with overlap
     ethr =  1.17E-08,  avg # of iterations =  1.4

     total cpu time spent up to now is      192.5 secs

     total energy              =    -339.58900773 Ry
     estimated scf accuracy    <       0.00000152 Ry

     total magnetization       =     0.74 Bohr mag/cell
     absolute magnetization    =     0.83 Bohr mag/cell

     iteration # 13     ecut=    60.00 Ry     beta= 0.70
     Davidson diagonalization with overlap
     ethr =  8.43E-09,  avg # of iterations =  1.4

     total cpu time spent up to now is      194.1 secs

     total energy              =    -339.58900779 Ry
     estimated scf accuracy    <       0.00000030 Ry

     total magnetization       =     0.74 Bohr mag/cell
     absolute magnetization    =     0.83 Bohr mag/cell

     iteration # 14     ecut=    60.00 Ry     beta= 0.70
     Davidson diagonalization with overlap
     ethr =  1.68E-09,  avg # of iterations =  1.0

     total cpu time spent up to now is      195.5 secs

     total energy              =    -339.58900780 Ry
     estimated scf accuracy    <          8.1E-09 Ry

     total magnetization       =     0.74 Bohr mag/cell
     absolute magnetization    =     0.83 Bohr mag/cell

     iteration # 15     ecut=    60.00 Ry     beta= 0.70
     Davidson diagonalization with overlap
     ethr =  4.50E-11,  avg # of iterations =  3.7

     total cpu time spent up to now is      197.5 secs

     total energy              =    -339.58900780 Ry
     estimated scf accuracy    <          1.4E-09 Ry

     total magnetization       =     0.74 Bohr mag/cell
     absolute magnetization    =     0.83 Bohr mag/cell

     iteration # 16     ecut=    60.00 Ry     beta= 0.70
     Davidson diagonalization with overlap
     ethr =  7.69E-12,  avg # of iterations =  2.0

     total cpu time spent up to now is      199.2 secs

     total energy              =    -339.58900780 Ry
     estimated scf accuracy    <          2.7E-09 Ry

     total magnetization       =     0.74 Bohr mag/cell
     absolute magnetization    =     0.83 Bohr mag/cell

     iteration # 17     ecut=    60.00 Ry     beta= 0.70
     Davidson diagonalization with overlap
     ethr =  7.69E-12,  avg # of iterations =  1.5

     total cpu time spent up to now is      201.0 secs

     total energy              =    -339.58900780 Ry
     estimated scf accuracy    <          3.1E-09 Ry

     total magnetization       =     0.74 Bohr mag/cell
     absolute magnetization    =     0.83 Bohr mag/cell

     iteration # 18     ecut=    60.00 Ry     beta= 0.70
     Davidson diagonalization with overlap
     ethr =  7.69E-12,  avg # of iterations =  1.0

     total cpu time spent up to now is      202.4 secs

     total energy              =    -339.58900780 Ry
     estimated scf accuracy    <          6.3E-09 Ry

     total magnetization       =     0.74 Bohr mag/cell
     absolute magnetization    =     0.83 Bohr mag/cell

     iteration # 19     ecut=    60.00 Ry     beta= 0.70
     Davidson diagonalization with overlap
     ethr =  7.69E-12,  avg # of iterations =  1.0

     total cpu time spent up to now is      203.8 secs

     total energy              =    -339.58900780 Ry
     estimated scf accuracy    <       0.00000001 Ry

     total magnetization       =     0.74 Bohr mag/cell
     absolute magnetization    =     0.83 Bohr mag/cell

     iteration # 20     ecut=    60.00 Ry     beta= 0.70
     Davidson diagonalization with overlap
     ethr =  7.69E-12,  avg # of iterations =  2.0

     Magnetic moment per site  (integrated on atomic sphere of radius R)
     atom   1 (R=0.412)  charge= 16.4043  magn=  0.7790

     total cpu time spent up to now is      205.5 secs

     End of self-consistent calculation

     Number of k-points >= 100: set verbosity='high' to print the bands.

     the Fermi energy is    19.6822 ev

!    total energy              =    -339.58900780 Ry
     estimated scf accuracy    <          7.0E-11 Ry
     smearing contrib. (-TS)   =      -0.00014653 Ry
     internal energy E=F+TS    =    -339.58886127 Ry

     The total energy is F=E-TS. E is the sum of the following terms:
     one-electron contribution =    -177.90557680 Ry
     hartree contribution      =     101.38765075 Ry
     xc contribution           =     -34.37989643 Ry
     ewald contribution        =    -228.69103879 Ry

     total magnetization       =     0.74 Bohr mag/cell
     absolute magnetization    =     0.83 Bohr mag/cell

     convergence has been achieved in  20 iterations

     Forces acting on atoms (cartesian axes, Ry/au):

     atom    1 type  1   force =     0.00000000    0.00000000    0.00000000

     Total force =     0.000000     Total SCF correction =     0.000008


     Computing stress (Cartesian axis) and pressure

          total   stress  (Ry/bohr**3)                   (kbar)     P=       -0.14
  -0.00000092  -0.00000000  -0.00000002           -0.14       -0.00       -0.00
  -0.00000000  -0.00000099  -0.00000002           -0.00       -0.15       -0.00
  -0.00000002  -0.00000002  -0.00000093           -0.00       -0.00       -0.14

     Energy error            =      5.6E-07 Ry
     Gradient error          =      0.0E+00 Ry/Bohr
     Cell gradient error     =      1.5E-01 kbar

     bfgs converged in   5 scf cycles and   3 bfgs steps
     (criteria: energy <  1.0E-05 Ry, force <  1.0E-04 Ry/Bohr, cell <  5.0E-01 kbar)

     End of BFGS Geometry Optimization

     Final enthalpy           =    -339.5890077988 Ry

     File ./out/pwscf.bfgs deleted, as requested
Begin final coordinates
     new unit-cell volume =     68.51828 a.u.^3 (    10.15336 Ang^3 )
     density =      9.59906 g/cm^3

CELL_PARAMETERS (bohr)
   4.593109075   0.000000164   0.000001673
   2.296554680   3.977757325   0.000003784
   2.296555951   1.325921941   3.750261921

ATOMIC_POSITIONS (crystal)
Ni            0.0000000000        0.0000000000        0.0000000000
End final coordinates



     Writing config-only to output data dir ./out/pwscf.save/

     Final scf calculation at the relaxed structure.
     The G-vectors are recalculated for the final unit cell
     Results may differ from those at the preceding step.

     Parallelization info
     --------------------
     sticks:   dense  smooth     PW     G-vecs:    dense   smooth      PW
     Min          57      29     10                 1003      356      74
     Max          58      30     11                 1006      359      77
     Sum         691     349    121                12051     4285     893

     Using Slab Decomposition



     bravais-lattice index     =            0
     lattice parameter (alat)  =       4.4077  a.u.
     unit-cell volume          =      68.5183 (a.u.)^3
     number of atoms/cell      =            1
     number of atomic types    =            1
     number of electrons       =        18.00
     number of Kohn-Sham states=           13
     kinetic-energy cutoff     =      60.0000  Ry
     charge density cutoff     =     480.0000  Ry
     scf convergence threshold =      1.0E-09
     mixing beta               =       0.7000
     number of iterations used =            8  TF        mixing
     press convergence thresh. =      5.0E-01
     Exchange-correlation= PBE
                           (   1   4   3   4   0   0   0)

     celldm(1)=   4.407654  celldm(2)=   0.000000  celldm(3)=   0.000000
     celldm(4)=   0.000000  celldm(5)=   0.000000  celldm(6)=   0.000000

     crystal axes: (cart. coord. in units of alat)
               a(1) = (   1.042076   0.000000   0.000000 )  
               a(2) = (   0.521038   0.902466   0.000001 )  
               a(3) = (   0.521038   0.300823   0.850852 )  

     reciprocal axes: (cart. coord. in units 2 pi/alat)
               b(1) = (  0.959623 -0.554037 -0.391764 )  
               b(2) = (  0.000000  1.108075 -0.391765 )  
               b(3) = ( -0.000000 -0.000001  1.175293 )  


     PseudoPot. # 1 for Ni read from file:
     /home/jmgoff/work/automation/qe_pseudos/Ni.upf
     MD5 check sum: caf20d35bef94d268ef04de15446df97
     Pseudo is Ultrasoft + core correction, Zval = 18.0
     Generated using 'atomic' code by A. Dal Corso  v.7.1
     Using radial grid of 1195 points,  6 beta functions with: 
                l(1) =   0
                l(2) =   0
                l(3) =   1
                l(4) =   1
                l(5) =   2
                l(6) =   2
     Q(r) pseudized with 0 coefficients 


     atomic species   valence    mass     pseudopotential
        Ni            18.00    58.69340     Ni( 1.00)

     Starting magnetic structure 
     atomic species   magnetization
        Ni           0.047

     No symmetry found



   Cartesian axes

     site n.     atom                  positions (alat units)
         1           Ni  tau(   1) = (   0.0000000   0.0000000   0.0000000  )

     number of k points=   504  Marzari-Vanderbilt smearing, width (Ry)=  0.0100

     Number of k-points >= 100: set verbosity='high' to print them.

     Dense  grid:    12051 G-vectors     FFT dimensions: (  36,  36,  36)

     Smooth grid:     4285 G-vectors     FFT dimensions: (  24,  24,  24)

     Estimated max dynamical RAM per process >      10.64 MB

     Estimated total dynamical RAM >     249.37 MB

     Check: negative core charge=   -0.000002
     Generating pointlists ...

     Initial potential from superposition of free atoms

     starting charge      17.9998, renormalised to      18.0000
     Starting wfcs are   10 randomized atomic wfcs +    3 random wfcs

     total cpu time spent up to now is      206.7 secs

     Self-consistent Calculation

     iteration #  1     ecut=    60.00 Ry     beta= 0.70
     Davidson diagonalization with overlap
     c_bands:  1 eigenvalues not converged
     ethr =  1.00E-06,  avg # of iterations = 10.5

     total cpu time spent up to now is      212.0 secs

     total energy              =    -339.59383513 Ry
     estimated scf accuracy    <       0.00226105 Ry

     total magnetization       =     0.73 Bohr mag/cell
     absolute magnetization    =     0.76 Bohr mag/cell

     iteration #  2     ecut=    60.00 Ry     beta= 0.70
     Davidson diagonalization with overlap
     ethr =  1.26E-05,  avg # of iterations =  1.0

     total cpu time spent up to now is      213.5 secs

     total energy              =    -339.59426115 Ry
     estimated scf accuracy    <       0.00040389 Ry

     total magnetization       =     0.73 Bohr mag/cell
     absolute magnetization    =     0.78 Bohr mag/cell

     iteration #  3     ecut=    60.00 Ry     beta= 0.70
     Davidson diagonalization with overlap
     ethr =  2.24E-06,  avg # of iterations =  1.8

     total cpu time spent up to now is      215.1 secs

     total energy              =    -339.59438376 Ry
     estimated scf accuracy    <       0.00004455 Ry

     total magnetization       =     0.73 Bohr mag/cell
     absolute magnetization    =     0.81 Bohr mag/cell

     iteration #  4     ecut=    60.00 Ry     beta= 0.70
     Davidson diagonalization with overlap
     ethr =  2.47E-07,  avg # of iterations =  2.0

     total cpu time spent up to now is      216.9 secs

     total energy              =    -339.59430746 Ry
     estimated scf accuracy    <       0.00696864 Ry

     total magnetization       =     0.74 Bohr mag/cell
     absolute magnetization    =     0.83 Bohr mag/cell

     iteration #  5     ecut=    60.00 Ry     beta= 0.70
     Davidson diagonalization with overlap
     ethr =  2.47E-07,  avg # of iterations =  2.0

     total cpu time spent up to now is      218.7 secs

     total energy              =    -339.59438770 Ry
     estimated scf accuracy    <       0.00012609 Ry

     total magnetization       =     0.74 Bohr mag/cell
     absolute magnetization    =     0.82 Bohr mag/cell

     iteration #  6     ecut=    60.00 Ry     beta= 0.70
     Davidson diagonalization with overlap
     ethr =  2.47E-07,  avg # of iterations =  2.0

     total cpu time spent up to now is      220.4 secs

     total energy              =    -339.59439171 Ry
     estimated scf accuracy    <       0.00016083 Ry

     total magnetization       =     0.74 Bohr mag/cell
     absolute magnetization    =     0.83 Bohr mag/cell

     iteration #  7     ecut=    60.00 Ry     beta= 0.70
     Davidson diagonalization with overlap
     ethr =  2.47E-07,  avg # of iterations =  2.0

     total cpu time spent up to now is      222.1 secs

     total energy              =    -339.59439555 Ry
     estimated scf accuracy    <       0.00000610 Ry

     total magnetization       =     0.74 Bohr mag/cell
     absolute magnetization    =     0.83 Bohr mag/cell

     iteration #  8     ecut=    60.00 Ry     beta= 0.70
     Davidson diagonalization with overlap
     ethr =  3.39E-08,  avg # of iterations =  2.0

     total cpu time spent up to now is      223.9 secs

     total energy              =    -339.59439398 Ry
     estimated scf accuracy    <       0.00009571 Ry

     total magnetization       =     0.74 Bohr mag/cell
     absolute magnetization    =     0.83 Bohr mag/cell

     iteration #  9     ecut=    60.00 Ry     beta= 0.70
     Davidson diagonalization with overlap
     ethr =  3.39E-08,  avg # of iterations =  2.0

     total cpu time spent up to now is      225.6 secs

     total energy              =    -339.59439557 Ry
     estimated scf accuracy    <       0.00000090 Ry

     total magnetization       =     0.74 Bohr mag/cell
     absolute magnetization    =     0.83 Bohr mag/cell

     iteration # 10     ecut=    60.00 Ry     beta= 0.70
     Davidson diagonalization with overlap
     ethr =  4.97E-09,  avg # of iterations =  1.0

     total cpu time spent up to now is      227.1 secs

     total energy              =    -339.59439559 Ry
     estimated scf accuracy    <       0.00000019 Ry

     total magnetization       =     0.74 Bohr mag/cell
     absolute magnetization    =     0.83 Bohr mag/cell

     iteration # 11     ecut=    60.00 Ry     beta= 0.70
     Davidson diagonalization with overlap
     ethr =  1.03E-09,  avg # of iterations =  1.5

     total cpu time spent up to now is      228.7 secs

     total energy              =    -339.59439560 Ry
     estimated scf accuracy    <       0.00000010 Ry

     total magnetization       =     0.74 Bohr mag/cell
     absolute magnetization    =     0.83 Bohr mag/cell

     iteration # 12     ecut=    60.00 Ry     beta= 0.70
     Davidson diagonalization with overlap
     ethr =  5.71E-10,  avg # of iterations =  1.0

     total cpu time spent up to now is      230.1 secs

     total energy              =    -339.59439559 Ry
     estimated scf accuracy    <       0.00000013 Ry

     total magnetization       =     0.74 Bohr mag/cell
     absolute magnetization    =     0.83 Bohr mag/cell

     iteration # 13     ecut=    60.00 Ry     beta= 0.70
     Davidson diagonalization with overlap
     ethr =  5.71E-10,  avg # of iterations =  1.3

     total cpu time spent up to now is      231.7 secs

     total energy              =    -339.59439559 Ry
     estimated scf accuracy    <       0.00000004 Ry

     total magnetization       =     0.74 Bohr mag/cell
     absolute magnetization    =     0.83 Bohr mag/cell

     iteration # 14     ecut=    60.00 Ry     beta= 0.70
     Davidson diagonalization with overlap
     ethr =  2.19E-10,  avg # of iterations =  1.0

     total cpu time spent up to now is      233.1 secs

     total energy              =    -339.59439559 Ry
     estimated scf accuracy    <          6.8E-09 Ry

     total magnetization       =     0.74 Bohr mag/cell
     absolute magnetization    =     0.83 Bohr mag/cell

     iteration # 15     ecut=    60.00 Ry     beta= 0.70
     Davidson diagonalization with overlap
     ethr =  3.77E-11,  avg # of iterations =  1.5

     Magnetic moment per site  (integrated on atomic sphere of radius R)
     atom   1 (R=0.412)  charge= 16.4038  magn=  0.7796

     total cpu time spent up to now is      234.7 secs

     End of self-consistent calculation

     Number of k-points >= 100: set verbosity='high' to print the bands.

     the Fermi energy is    19.6814 ev

!    total energy              =    -339.59439560 Ry
     estimated scf accuracy    <          9.5E-10 Ry
     smearing contrib. (-TS)   =      -0.00014402 Ry
     internal energy E=F+TS    =    -339.59425158 Ry

     The total energy is F=E-TS. E is the sum of the following terms:
     one-electron contribution =    -177.91138926 Ry
     hartree contribution      =     101.38645153 Ry
     xc contribution           =     -34.37827506 Ry
     ewald contribution        =    -228.69103879 Ry

     total magnetization       =     0.74 Bohr mag/cell
     absolute magnetization    =     0.83 Bohr mag/cell

     convergence has been achieved in  15 iterations

     Forces acting on atoms (cartesian axes, Ry/au):

     atom    1 type  1   force =     0.00000000    0.00000000    0.00000000

     Total force =     0.000000     Total SCF correction =     0.000028


     Computing stress (Cartesian axis) and pressure

          total   stress  (Ry/bohr**3)                   (kbar)     P=      153.89
   0.00104613  -0.00000000  -0.00000000          153.89       -0.00       -0.00
  -0.00000000   0.00104609  -0.00000001           -0.00      153.89       -0.00
  -0.00000000  -0.00000001   0.00104613           -0.00       -0.00      153.89


     Writing all to output data dir ./out/pwscf.save/

     init_run     :      1.04s CPU      1.30s WALL (       2 calls)
     electrons    :    185.86s CPU    230.89s WALL (       6 calls)
     update_pot   :      0.19s CPU      0.22s WALL (       4 calls)
     forces       :      0.61s CPU      0.82s WALL (       6 calls)
     stress       :      1.34s CPU      1.43s WALL (       6 calls)

     Called by init_run:
     wfcinit      :      0.83s CPU      1.05s WALL (       2 calls)
     potinit      :      0.03s CPU      0.03s WALL (       2 calls)
     hinit0       :      0.16s CPU      0.20s WALL (       2 calls)

     Called by electrons:
     c_bands      :    161.06s CPU    199.91s WALL (     135 calls)
     sum_band     :     23.77s CPU     29.81s WALL (     135 calls)
     v_of_rho     :      0.68s CPU      0.72s WALL (     141 calls)
     newd         :      0.24s CPU      0.26s WALL (     141 calls)
     mix_rho      :      0.07s CPU      0.12s WALL (     135 calls)

     Called by c_bands:
     init_us_2    :      1.65s CPU      2.06s WALL (  143136 calls)
     init_us_2:cp :      1.49s CPU      1.89s WALL (  143136 calls)
     cegterg      :    155.19s CPU    191.40s WALL (   68040 calls)

     Called by *egterg:
     cdiaghg      :     24.40s CPU     29.40s WALL (  188984 calls)
     h_psi        :    105.07s CPU    130.18s WALL (  192008 calls)
     s_psi        :      3.68s CPU      4.56s WALL (  192008 calls)
     g_psi        :      0.23s CPU      0.28s WALL (  122960 calls)

     Called by h_psi:
     h_psi:calbec :      6.59s CPU      8.19s WALL (  192008 calls)
     vloc_psi     :     94.39s CPU    116.93s WALL (  192008 calls)
     add_vuspsi   :      3.39s CPU      4.21s WALL (  192008 calls)

     General routines
     calbec       :      9.07s CPU     11.43s WALL (  275168 calls)
     fft          :      0.23s CPU      0.26s WALL (    3757 calls)
     ffts         :      0.02s CPU      0.02s WALL (     552 calls)
     fftw         :    106.85s CPU    132.74s WALL ( 5032432 calls)
     interpolate  :      0.03s CPU      0.03s WALL (     282 calls)

     Parallel routines

     PWSCF        :   3m 9.88s CPU   3m56.38s WALL


   This run was terminated on:  16:21:56  18Jun2023            

=------------------------------------------------------------------------------=
   JOB DONE.
=------------------------------------------------------------------------------=
Note: The following floating-point exceptions are signalling: IEEE_DENORMAL
Note: The following floating-point exceptions are signalling: IEEE_DENORMAL
Note: The following floating-point exceptions are signalling: IEEE_DENORMAL
Note: The following floating-point exceptions are signalling: IEEE_DENORMAL
Note: The following floating-point exceptions are signalling: IEEE_DENORMAL
Note: The following floating-point exceptions are signalling: IEEE_DENORMAL
Note: The following floating-point exceptions are signalling: IEEE_DENORMAL
Note: The following floating-point exceptions are signalling: IEEE_DENORMAL
