Ignoring PCI device with non-16bit domain.
Pass --enable-32bits-pci-domain to configure to support such devices
(warning: it would break the library ABI, don't enable unless really needed).

     Program PWSCF v.7.1 starts on 18Jun2023 at 16:25:31 

     This program is part of the open-source Quantum ESPRESSO suite
     for quantum simulation of materials; please cite
         "P. Giannozzi et al., J. Phys.:Condens. Matter 21 395502 (2009);
         "P. Giannozzi et al., J. Phys.:Condens. Matter 29 465901 (2017);
         "P. Giannozzi et al., J. Chem. Phys. 152 154105 (2020);
          URL http://www.quantum-espresso.org", 
     in publications or presentations arising from this work. More details at
     http://www.quantum-espresso.org/quote

     Parallel version (MPI), running on    24 processors

     MPI processes distributed on     1 nodes
     9277 MiB available memory on the printing compute node when the environment starts

     Reading input from Ni_tetragonal_st_atoms.in

     Current dimensions of program PWSCF are:
     Max number of different atomic species (ntypx) = 10
     Max number of k-points (npk) =  40000
     Max angular momentum in pseudopotentials (lmaxx) =  4

     K-points division:     npool     =       2
     R & G space division:  proc/nbgrp/npool/nimage =      12
     Subspace diagonalization in iterative solution of the eigenvalue problem:
     a serial algorithm will be used


     Parallelization info
     --------------------
     sticks:   dense  smooth     PW     G-vecs:    dense   smooth      PW
     Min          51      25      8                 1301      457      86
     Max          52      26      9                 1304      462      91
     Sum         621     305    101                15633     5523    1051

     Using Slab Decomposition



     bravais-lattice index     =            0
     lattice parameter (alat)  =       4.0440  a.u.
     unit-cell volume          =      88.1812 (a.u.)^3
     number of atoms/cell      =            1
     number of atomic types    =            1
     number of electrons       =        18.00
     number of Kohn-Sham states=           13
     kinetic-energy cutoff     =      60.0000  Ry
     charge density cutoff     =     480.0000  Ry
     scf convergence threshold =      1.0E-06
     mixing beta               =       0.7000
     number of iterations used =            8  TF        mixing
     energy convergence thresh.=      1.0E-05
     force convergence thresh. =      1.0E-04
     press convergence thresh. =      5.0E-01
     Exchange-correlation= PBE
                           (   1   4   3   4   0   0   0)
     nstep                     =           50


     celldm(1)=   4.044014  celldm(2)=   0.000000  celldm(3)=   0.000000
     celldm(4)=   0.000000  celldm(5)=   0.000000  celldm(6)=   0.000000

     crystal axes: (cart. coord. in units of alat)
               a(1) = (   1.000000   0.000000   0.000000 )  
               a(2) = (   0.000000   1.000000   0.000000 )  
               a(3) = (   0.000000   0.000000   1.333332 )  

     reciprocal axes: (cart. coord. in units 2 pi/alat)
               b(1) = (  1.000000  0.000000  0.000000 )  
               b(2) = (  0.000000  1.000000  0.000000 )  
               b(3) = (  0.000000  0.000000  0.750001 )  


     PseudoPot. # 1 for Ni read from file:
     /home/jmgoff/work/automation/qe_pseudos/Ni.upf
     MD5 check sum: caf20d35bef94d268ef04de15446df97
     Pseudo is Ultrasoft + core correction, Zval = 18.0
     Generated using 'atomic' code by A. Dal Corso  v.7.1
     Using radial grid of 1195 points,  6 beta functions with: 
                l(1) =   0
                l(2) =   0
                l(3) =   1
                l(4) =   1
                l(5) =   2
                l(6) =   2
     Q(r) pseudized with 0 coefficients 


     atomic species   valence    mass     pseudopotential
        Ni            18.00    58.69340     Ni( 1.00)

     Starting magnetic structure 
     atomic species   magnetization
        Ni           1.000

     No symmetry found



   Cartesian axes

     site n.     atom                  positions (alat units)
         1           Ni  tau(   1) = (   0.0000000   0.0000000   0.0000000  )

     number of k points=   352  Marzari-Vanderbilt smearing, width (Ry)=  0.0100

     Number of k-points >= 100: set verbosity='high' to print them.

     Dense  grid:    15633 G-vectors     FFT dimensions: (  30,  30,  40)

     Smooth grid:     5523 G-vectors     FFT dimensions: (  20,  20,  27)

     Estimated max dynamical RAM per process >      10.87 MB

     Estimated total dynamical RAM >     253.14 MB

     Check: negative core charge=   -0.000001
     Generating pointlists ...
     new r_m :   0.4125 (alat units)  1.6682 (a.u.) for type    1

     Initial potential from superposition of free atoms

     starting charge      17.9998, renormalised to      18.0000
     Starting wfcs are   10 randomized atomic wfcs +    3 random wfcs

     total cpu time spent up to now is        0.7 secs

     Self-consistent Calculation

     iteration #  1     ecut=    60.00 Ry     beta= 0.70
     Davidson diagonalization with overlap
     ethr =  1.00E-02,  avg # of iterations =  5.5

     negative rho (up, down):  0.000E+00 1.360E-04

     total cpu time spent up to now is        3.0 secs

     total energy              =    -335.67471081 Ry
     estimated scf accuracy    <       8.55915683 Ry

     total magnetization       =     6.44 Bohr mag/cell
     absolute magnetization    =     6.44 Bohr mag/cell

     iteration #  2     ecut=    60.00 Ry     beta= 0.70
     Davidson diagonalization with overlap
     ethr =  1.00E-02,  avg # of iterations =  2.5

     total cpu time spent up to now is        4.6 secs

     total energy              =    -338.57843826 Ry
     estimated scf accuracy    <       7.18038468 Ry

     total magnetization       =     0.74 Bohr mag/cell
     absolute magnetization    =     0.91 Bohr mag/cell

     iteration #  3     ecut=    60.00 Ry     beta= 0.70
     Davidson diagonalization with overlap
     ethr =  1.00E-02,  avg # of iterations =  2.0

     total cpu time spent up to now is        5.9 secs

     total energy              =    -339.51240094 Ry
     estimated scf accuracy    <       0.97961746 Ry

     total magnetization       =     1.55 Bohr mag/cell
     absolute magnetization    =     1.65 Bohr mag/cell

     iteration #  4     ecut=    60.00 Ry     beta= 0.70
     Davidson diagonalization with overlap
     ethr =  5.44E-03,  avg # of iterations =  2.5

     total cpu time spent up to now is        7.5 secs

     total energy              =    -336.11010016 Ry
     estimated scf accuracy    <     219.53901787 Ry

     total magnetization       =     0.75 Bohr mag/cell
     absolute magnetization    =    21.27 Bohr mag/cell

     iteration #  5     ecut=    60.00 Ry     beta= 0.70
     Davidson diagonalization with overlap
     ethr =  5.44E-03,  avg # of iterations =  2.1

     total cpu time spent up to now is        9.0 secs

     total energy              =    -339.47204594 Ry
     estimated scf accuracy    <       0.12652291 Ry

     total magnetization       =     0.90 Bohr mag/cell
     absolute magnetization    =     1.10 Bohr mag/cell

     iteration #  6     ecut=    60.00 Ry     beta= 0.70
     Davidson diagonalization with overlap
     ethr =  7.03E-04,  avg # of iterations =  2.0

     total cpu time spent up to now is       10.4 secs

     total energy              =    -339.67208439 Ry
     estimated scf accuracy    <       6.16625822 Ry

     total magnetization       =     0.81 Bohr mag/cell
     absolute magnetization    =     3.10 Bohr mag/cell

     iteration #  7     ecut=    60.00 Ry     beta= 0.70
     Davidson diagonalization with overlap
     ethr =  7.03E-04,  avg # of iterations =  2.0

     total cpu time spent up to now is       11.7 secs

     total energy              =    -339.19862982 Ry
     estimated scf accuracy    <      18.54219840 Ry

     total magnetization       =     0.72 Bohr mag/cell
     absolute magnetization    =     6.32 Bohr mag/cell

     iteration #  8     ecut=    60.00 Ry     beta= 0.70
     Davidson diagonalization with overlap
     ethr =  7.03E-04,  avg # of iterations =  2.0

     total cpu time spent up to now is       13.1 secs

     total energy              =    -339.51059219 Ry
     estimated scf accuracy    <       0.65418581 Ry

     total magnetization       =     0.83 Bohr mag/cell
     absolute magnetization    =     1.61 Bohr mag/cell

     iteration #  9     ecut=    60.00 Ry     beta= 0.70
     Davidson diagonalization with overlap
     ethr =  7.03E-04,  avg # of iterations =  1.5

     total cpu time spent up to now is       14.3 secs

     total energy              =    -339.50324968 Ry
     estimated scf accuracy    <       0.96458597 Ry

     total magnetization       =     0.82 Bohr mag/cell
     absolute magnetization    =     1.84 Bohr mag/cell

     iteration # 10     ecut=    60.00 Ry     beta= 0.70
     Davidson diagonalization with overlap
     ethr =  7.03E-04,  avg # of iterations =  1.9

     total cpu time spent up to now is       15.6 secs

     total energy              =    -339.49541143 Ry
     estimated scf accuracy    <       0.40386927 Ry

     total magnetization       =     0.82 Bohr mag/cell
     absolute magnetization    =     1.37 Bohr mag/cell

     iteration # 11     ecut=    60.00 Ry     beta= 0.70
     Davidson diagonalization with overlap
     ethr =  7.03E-04,  avg # of iterations =  2.0

     total cpu time spent up to now is       16.9 secs

     total energy              =    -339.50539468 Ry
     estimated scf accuracy    <       0.06547491 Ry

     total magnetization       =     0.77 Bohr mag/cell
     absolute magnetization    =     0.96 Bohr mag/cell

     iteration # 12     ecut=    60.00 Ry     beta= 0.70
     Davidson diagonalization with overlap
     ethr =  3.64E-04,  avg # of iterations =  1.0

     total cpu time spent up to now is       17.9 secs

     total energy              =    -339.50515170 Ry
     estimated scf accuracy    <       0.02708427 Ry

     total magnetization       =     0.76 Bohr mag/cell
     absolute magnetization    =     0.85 Bohr mag/cell

     iteration # 13     ecut=    60.00 Ry     beta= 0.70
     Davidson diagonalization with overlap
     ethr =  1.50E-04,  avg # of iterations =  1.3

     total cpu time spent up to now is       19.1 secs

     total energy              =    -339.50581243 Ry
     estimated scf accuracy    <       0.00097695 Ry

     total magnetization       =     0.76 Bohr mag/cell
     absolute magnetization    =     0.82 Bohr mag/cell

     iteration # 14     ecut=    60.00 Ry     beta= 0.70
     Davidson diagonalization with overlap
     ethr =  5.43E-06,  avg # of iterations =  1.7

     total cpu time spent up to now is       20.4 secs

     total energy              =    -339.50585911 Ry
     estimated scf accuracy    <       0.00046498 Ry

     total magnetization       =     0.76 Bohr mag/cell
     absolute magnetization    =     0.82 Bohr mag/cell

     iteration # 15     ecut=    60.00 Ry     beta= 0.70
     Davidson diagonalization with overlap
     ethr =  2.58E-06,  avg # of iterations =  1.1

     total cpu time spent up to now is       21.5 secs

     total energy              =    -339.50587073 Ry
     estimated scf accuracy    <       0.00002763 Ry

     total magnetization       =     0.75 Bohr mag/cell
     absolute magnetization    =     0.81 Bohr mag/cell

     iteration # 16     ecut=    60.00 Ry     beta= 0.70
     Davidson diagonalization with overlap
     ethr =  1.54E-07,  avg # of iterations =  1.6

     total cpu time spent up to now is       22.8 secs

     total energy              =    -339.50587149 Ry
     estimated scf accuracy    <       0.00004640 Ry

     total magnetization       =     0.75 Bohr mag/cell
     absolute magnetization    =     0.81 Bohr mag/cell

     iteration # 17     ecut=    60.00 Ry     beta= 0.70
     Davidson diagonalization with overlap
     ethr =  1.54E-07,  avg # of iterations =  1.5

     total cpu time spent up to now is       24.0 secs

     total energy              =    -339.50587323 Ry
     estimated scf accuracy    <       0.00001995 Ry

     total magnetization       =     0.75 Bohr mag/cell
     absolute magnetization    =     0.81 Bohr mag/cell

     iteration # 18     ecut=    60.00 Ry     beta= 0.70
     Davidson diagonalization with overlap
     ethr =  1.11E-07,  avg # of iterations =  1.0

     total cpu time spent up to now is       25.1 secs

     total energy              =    -339.50587352 Ry
     estimated scf accuracy    <       0.00000536 Ry

     total magnetization       =     0.75 Bohr mag/cell
     absolute magnetization    =     0.81 Bohr mag/cell

     iteration # 19     ecut=    60.00 Ry     beta= 0.70
     Davidson diagonalization with overlap
     ethr =  2.98E-08,  avg # of iterations =  1.4

     total cpu time spent up to now is       26.3 secs

     total energy              =    -339.50587443 Ry
     estimated scf accuracy    <       0.00002358 Ry

     total magnetization       =     0.75 Bohr mag/cell
     absolute magnetization    =     0.81 Bohr mag/cell

     iteration # 20     ecut=    60.00 Ry     beta= 0.70
     Davidson diagonalization with overlap
     ethr =  2.98E-08,  avg # of iterations =  2.0

     total cpu time spent up to now is       27.6 secs

     total energy              =    -339.50587470 Ry
     estimated scf accuracy    <       0.00010319 Ry

     total magnetization       =     0.75 Bohr mag/cell
     absolute magnetization    =     0.81 Bohr mag/cell

     iteration # 21     ecut=    60.00 Ry     beta= 0.70
     Davidson diagonalization with overlap
     ethr =  2.98E-08,  avg # of iterations =  1.5

     total cpu time spent up to now is       28.9 secs

     total energy              =    -339.50587088 Ry
     estimated scf accuracy    <       0.00014646 Ry

     total magnetization       =     0.75 Bohr mag/cell
     absolute magnetization    =     0.81 Bohr mag/cell

     iteration # 22     ecut=    60.00 Ry     beta= 0.70
     Davidson diagonalization with overlap
     ethr =  2.98E-08,  avg # of iterations =  2.0

     Magnetic moment per site  (integrated on atomic sphere of radius R)
     atom   1 (R=0.413)  charge= 15.9641  magn=  0.7745

     total cpu time spent up to now is       30.3 secs

     End of self-consistent calculation

     Number of k-points >= 100: set verbosity='high' to print the bands.

     the Fermi energy is    14.3541 ev

!    total energy              =    -339.50587326 Ry
     estimated scf accuracy    <       0.00000064 Ry
     smearing contrib. (-TS)   =      -0.00007120 Ry
     internal energy E=F+TS    =    -339.50580206 Ry

     The total energy is F=E-TS. E is the sum of the following terms:
     one-electron contribution =    -227.43364629 Ry
     hartree contribution      =     122.74332215 Ry
     xc contribution           =     -34.34938565 Ry
     ewald contribution        =    -200.46609227 Ry

     total magnetization       =     0.75 Bohr mag/cell
     absolute magnetization    =     0.81 Bohr mag/cell

     convergence has been achieved in  22 iterations

     Forces acting on atoms (cartesian axes, Ry/au):

     atom    1 type  1   force =     0.00000000    0.00000000    0.00000000

     Total force =     0.000000     Total SCF correction =     0.001657


     Computing stress (Cartesian axis) and pressure

          total   stress  (Ry/bohr**3)                   (kbar)     P=      162.61
   0.00258543  -0.00000003  -0.00000009          380.33       -0.00       -0.01
  -0.00000003   0.00258552  -0.00000014           -0.00      380.34       -0.02
  -0.00000009  -0.00000014  -0.00185467           -0.01       -0.02     -272.83


     BFGS Geometry Optimization
     Energy error            =      0.0E+00 Ry
     Gradient error          =      0.0E+00 Ry/Bohr
     Cell gradient error     =      3.8E+02 kbar

     number of scf cycles    =   1
     number of bfgs steps    =   0

     enthalpy           new  =    -339.5058732597 Ry

     new trust radius        =       0.1213966341 bohr
     new conv_thr            =       0.0000010000 Ry

     new unit-cell volume =     95.31485 a.u.^3 (    14.12420 Ang^3 )
     density =      6.90040 g/cm^3

CELL_PARAMETERS (bohr)
   4.305401706  -0.000003071  -0.000009603
  -0.000003071   4.305410995  -0.000014556
  -0.000012804  -0.000019408   5.142002408

ATOMIC_POSITIONS (crystal)
Ni            0.0000000000        0.0000000000        0.0000000000



     Writing config-only to output data dir ./out/pwscf.save/
     NEW-OLD atomic charge density approx. for the potential

     Check: negative core charge=   -0.000002
     extrapolated charge   19.34715, renormalised to   18.00000
     Generating pointlists ...

     total cpu time spent up to now is       30.8 secs

     Self-consistent Calculation

     iteration #  1     ecut=    60.00 Ry     beta= 0.70
     Davidson diagonalization with overlap
     c_bands:  1 eigenvalues not converged
     ethr =  1.00E-06,  avg # of iterations = 10.7

     total cpu time spent up to now is       35.4 secs

     total energy              =    -329.98697466 Ry
     estimated scf accuracy    <      11.77719806 Ry

     total magnetization       =     0.63 Bohr mag/cell
     absolute magnetization    =     0.66 Bohr mag/cell

     iteration #  2     ecut=    60.00 Ry     beta= 0.70
     Davidson diagonalization with overlap
     ethr =  1.00E-02,  avg # of iterations =  3.0

     total cpu time spent up to now is       37.3 secs

     total energy              =    -339.84626767 Ry
     estimated scf accuracy    <      23.35411434 Ry

     total magnetization       =     0.00 Bohr mag/cell
     absolute magnetization    =     0.11 Bohr mag/cell

     iteration #  3     ecut=    60.00 Ry     beta= 0.70
     Davidson diagonalization with overlap
     ethr =  1.00E-02,  avg # of iterations =  2.0

     total cpu time spent up to now is       38.8 secs

     total energy              =    -340.61731220 Ry
     estimated scf accuracy    <       7.53556162 Ry

     total magnetization       =     0.00 Bohr mag/cell
     absolute magnetization    =     1.39 Bohr mag/cell

     iteration #  4     ecut=    60.00 Ry     beta= 0.70
     Davidson diagonalization with overlap
     ethr =  1.00E-02,  avg # of iterations =  2.0

     negative rho (up, down):  6.925E-06 2.715E-05

     total cpu time spent up to now is       40.1 secs

     total energy              =    -338.25590704 Ry
     estimated scf accuracy    <     107.28805394 Ry

     total magnetization       =     0.00 Bohr mag/cell
     absolute magnetization    =    14.64 Bohr mag/cell

     iteration #  5     ecut=    60.00 Ry     beta= 0.70
     Davidson diagonalization with overlap
     ethr =  1.00E-02,  avg # of iterations =  2.0

     total cpu time spent up to now is       41.4 secs

     total energy              =    -339.82068666 Ry
     estimated scf accuracy    <       2.27521170 Ry

     total magnetization       =     0.16 Bohr mag/cell
     absolute magnetization    =     0.43 Bohr mag/cell

     iteration #  6     ecut=    60.00 Ry     beta= 0.70
     Davidson diagonalization with overlap
     ethr =  1.00E-02,  avg # of iterations =  1.0

     total cpu time spent up to now is       42.5 secs

     total energy              =    -339.81908743 Ry
     estimated scf accuracy    <       2.09220269 Ry

     total magnetization       =     0.17 Bohr mag/cell
     absolute magnetization    =     0.50 Bohr mag/cell

     iteration #  7     ecut=    60.00 Ry     beta= 0.70
     Davidson diagonalization with overlap
     ethr =  1.00E-02,  avg # of iterations =  1.0

     total cpu time spent up to now is       43.6 secs

     total energy              =    -339.57890931 Ry
     estimated scf accuracy    <       4.41267676 Ry

     total magnetization       =     0.17 Bohr mag/cell
     absolute magnetization    =     2.43 Bohr mag/cell

     iteration #  8     ecut=    60.00 Ry     beta= 0.70
     Davidson diagonalization with overlap
     ethr =  1.00E-02,  avg # of iterations =  1.0

     total cpu time spent up to now is       44.7 secs

     total energy              =    -339.58807222 Ry
     estimated scf accuracy    <       0.82816261 Ry

     total magnetization       =     0.33 Bohr mag/cell
     absolute magnetization    =     0.49 Bohr mag/cell

     iteration #  9     ecut=    60.00 Ry     beta= 0.70
     Davidson diagonalization with overlap
     ethr =  4.60E-03,  avg # of iterations =  1.0

     total cpu time spent up to now is       45.8 secs

     total energy              =    -339.56548089 Ry
     estimated scf accuracy    <       0.51585595 Ry

     total magnetization       =     0.38 Bohr mag/cell
     absolute magnetization    =     0.43 Bohr mag/cell

     iteration # 10     ecut=    60.00 Ry     beta= 0.70
     Davidson diagonalization with overlap
     ethr =  2.87E-03,  avg # of iterations =  1.0

     total cpu time spent up to now is       46.8 secs

     total energy              =    -339.46090819 Ry
     estimated scf accuracy    <       0.30818880 Ry

     total magnetization       =     0.45 Bohr mag/cell
     absolute magnetization    =     0.54 Bohr mag/cell

     iteration # 11     ecut=    60.00 Ry     beta= 0.70
     Davidson diagonalization with overlap
     ethr =  1.71E-03,  avg # of iterations =  2.0

     total cpu time spent up to now is       48.1 secs

     total energy              =    -339.51281124 Ry
     estimated scf accuracy    <       0.35849574 Ry

     total magnetization       =     0.72 Bohr mag/cell
     absolute magnetization    =     1.23 Bohr mag/cell

     iteration # 12     ecut=    60.00 Ry     beta= 0.70
     Davidson diagonalization with overlap
     ethr =  1.71E-03,  avg # of iterations =  1.0

     total cpu time spent up to now is       49.2 secs

     total energy              =    -339.52123863 Ry
     estimated scf accuracy    <       0.09927988 Ry

     total magnetization       =     0.69 Bohr mag/cell
     absolute magnetization    =     0.78 Bohr mag/cell

     iteration # 13     ecut=    60.00 Ry     beta= 0.70
     Davidson diagonalization with overlap
     ethr =  5.52E-04,  avg # of iterations =  1.0

     total cpu time spent up to now is       50.3 secs

     total energy              =    -339.52399590 Ry
     estimated scf accuracy    <       0.01914143 Ry

     total magnetization       =     0.69 Bohr mag/cell
     absolute magnetization    =     0.78 Bohr mag/cell

     iteration # 14     ecut=    60.00 Ry     beta= 0.70
     Davidson diagonalization with overlap
     ethr =  1.06E-04,  avg # of iterations =  1.0

     total cpu time spent up to now is       51.4 secs

     total energy              =    -339.52448898 Ry
     estimated scf accuracy    <       0.01692041 Ry

     total magnetization       =     0.73 Bohr mag/cell
     absolute magnetization    =     0.81 Bohr mag/cell

     iteration # 15     ecut=    60.00 Ry     beta= 0.70
     Davidson diagonalization with overlap
     ethr =  9.40E-05,  avg # of iterations =  1.0

     total cpu time spent up to now is       52.5 secs

     total energy              =    -339.52406273 Ry
     estimated scf accuracy    <       0.02062571 Ry

     total magnetization       =     0.76 Bohr mag/cell
     absolute magnetization    =     0.86 Bohr mag/cell

     iteration # 16     ecut=    60.00 Ry     beta= 0.70
     Davidson diagonalization with overlap
     ethr =  9.40E-05,  avg # of iterations =  1.0

     total cpu time spent up to now is       53.5 secs

     total energy              =    -339.52459871 Ry
     estimated scf accuracy    <       0.00115926 Ry

     total magnetization       =     0.78 Bohr mag/cell
     absolute magnetization    =     0.84 Bohr mag/cell

     iteration # 17     ecut=    60.00 Ry     beta= 0.70
     Davidson diagonalization with overlap
     ethr =  6.44E-06,  avg # of iterations =  1.6

     total cpu time spent up to now is       54.8 secs

     total energy              =    -339.52466256 Ry
     estimated scf accuracy    <       0.00196957 Ry

     total magnetization       =     0.78 Bohr mag/cell
     absolute magnetization    =     0.85 Bohr mag/cell

     iteration # 18     ecut=    60.00 Ry     beta= 0.70
     Davidson diagonalization with overlap
     ethr =  6.44E-06,  avg # of iterations =  1.0

     total cpu time spent up to now is       55.9 secs

     total energy              =    -339.52455088 Ry
     estimated scf accuracy    <       0.00327156 Ry

     total magnetization       =     0.78 Bohr mag/cell
     absolute magnetization    =     0.85 Bohr mag/cell

     iteration # 19     ecut=    60.00 Ry     beta= 0.70
     Davidson diagonalization with overlap
     ethr =  6.44E-06,  avg # of iterations =  1.9

     total cpu time spent up to now is       57.1 secs

     total energy              =    -339.52465748 Ry
     estimated scf accuracy    <       0.00026783 Ry

     total magnetization       =     0.80 Bohr mag/cell
     absolute magnetization    =     0.87 Bohr mag/cell

     iteration # 20     ecut=    60.00 Ry     beta= 0.70
     Davidson diagonalization with overlap
     ethr =  1.49E-06,  avg # of iterations =  2.0

     total cpu time spent up to now is       58.5 secs

     total energy              =    -339.52471845 Ry
     estimated scf accuracy    <       0.00251170 Ry

     total magnetization       =     0.80 Bohr mag/cell
     absolute magnetization    =     0.87 Bohr mag/cell

     iteration # 21     ecut=    60.00 Ry     beta= 0.70
     Davidson diagonalization with overlap
     ethr =  1.49E-06,  avg # of iterations =  2.0

     total cpu time spent up to now is       59.8 secs

     total energy              =    -339.52453671 Ry
     estimated scf accuracy    <       0.00749728 Ry

     total magnetization       =     0.82 Bohr mag/cell
     absolute magnetization    =     0.89 Bohr mag/cell

     iteration # 22     ecut=    60.00 Ry     beta= 0.70
     Davidson diagonalization with overlap
     ethr =  1.49E-06,  avg # of iterations =  2.0

     total cpu time spent up to now is       61.2 secs

     total energy              =    -339.52466974 Ry
     estimated scf accuracy    <       0.00022870 Ry

     total magnetization       =     0.82 Bohr mag/cell
     absolute magnetization    =     0.89 Bohr mag/cell

     iteration # 23     ecut=    60.00 Ry     beta= 0.70
     Davidson diagonalization with overlap
     ethr =  1.27E-06,  avg # of iterations =  1.5

     total cpu time spent up to now is       62.4 secs

     total energy              =    -339.52469169 Ry
     estimated scf accuracy    <       0.00007386 Ry

     total magnetization       =     0.82 Bohr mag/cell
     absolute magnetization    =     0.89 Bohr mag/cell

     iteration # 24     ecut=    60.00 Ry     beta= 0.70
     Davidson diagonalization with overlap
     ethr =  4.10E-07,  avg # of iterations =  1.0

     total cpu time spent up to now is       63.5 secs

     total energy              =    -339.52469438 Ry
     estimated scf accuracy    <       0.00000178 Ry

     total magnetization       =     0.82 Bohr mag/cell
     absolute magnetization    =     0.89 Bohr mag/cell

     iteration # 25     ecut=    60.00 Ry     beta= 0.70
     Davidson diagonalization with overlap
     ethr =  9.88E-09,  avg # of iterations =  1.1

     Magnetic moment per site  (integrated on atomic sphere of radius R)
     atom   1 (R=0.413)  charge= 15.8808  magn=  0.8467

     total cpu time spent up to now is       64.6 secs

     End of self-consistent calculation

     Number of k-points >= 100: set verbosity='high' to print the bands.

     the Fermi energy is    12.8975 ev

!    total energy              =    -339.52469480 Ry
     estimated scf accuracy    <       0.00000045 Ry
     smearing contrib. (-TS)   =      -0.00001769 Ry
     internal energy E=F+TS    =    -339.52467711 Ry

     The total energy is F=E-TS. E is the sum of the following terms:
     one-electron contribution =    -228.79954921 Ry
     hartree contribution      =     122.60035326 Ry
     xc contribution           =     -34.27554518 Ry
     ewald contribution        =    -199.04993598 Ry

     total magnetization       =     0.82 Bohr mag/cell
     absolute magnetization    =     0.89 Bohr mag/cell

     convergence has been achieved in  25 iterations

     Forces acting on atoms (cartesian axes, Ry/au):

     atom    1 type  1   force =     0.00000000    0.00000000    0.00000000

     Total force =     0.000000     Total SCF correction =     0.000188


     Computing stress (Cartesian axis) and pressure

          total   stress  (Ry/bohr**3)                   (kbar)     P=     -170.71
  -0.00076689  -0.00000013  -0.00000003         -112.81       -0.02       -0.00
  -0.00000013  -0.00076681  -0.00000006           -0.02     -112.80       -0.01
  -0.00000003  -0.00000006  -0.00194775           -0.00       -0.01     -286.52

     Energy error            =      1.9E-02 Ry
     Gradient error          =      0.0E+00 Ry/Bohr
     Cell gradient error     =      2.9E+02 kbar

     number of scf cycles    =   2
     number of bfgs steps    =   1

     enthalpy           old  =    -339.5058732597 Ry
     enthalpy           new  =    -339.5246948022 Ry

     CASE: enthalpy          _new < enthalpy          _old

     new trust radius        =       0.1481243948 bohr
     new conv_thr            =       0.0000000010 Ry

     new unit-cell volume =     88.75574 a.u.^3 (    13.15224 Ang^3 )
     density =      7.41035 g/cm^3

CELL_PARAMETERS (bohr)
   4.321776270  -0.000017658  -0.000016228
  -0.000017658   4.321797601  -0.000027231
  -0.000021640  -0.000036720   4.751926989

ATOMIC_POSITIONS (crystal)
Ni            0.0000000000        0.0000000000        0.0000000000



     Writing config-only to output data dir ./out/pwscf.save/
     NEW-OLD atomic charge density approx. for the potential

     Check: negative core charge=   -0.000002
     extrapolated charge   16.66981, renormalised to   18.00000
     Generating pointlists ...

     total cpu time spent up to now is       65.1 secs

     Self-consistent Calculation

     iteration #  1     ecut=    60.00 Ry     beta= 0.70
     Davidson diagonalization with overlap
     ethr =  1.00E-06,  avg # of iterations =  9.0

     total cpu time spent up to now is       69.1 secs

     total energy              =    -334.37338062 Ry
     estimated scf accuracy    <       6.11626716 Ry

     total magnetization       =     0.00 Bohr mag/cell
     absolute magnetization    =     0.09 Bohr mag/cell

     iteration #  2     ecut=    60.00 Ry     beta= 0.70
     Davidson diagonalization with overlap
     ethr =  1.00E-02,  avg # of iterations =  3.3

     total cpu time spent up to now is       70.9 secs

     total energy              =    -339.05493412 Ry
     estimated scf accuracy    <      22.17642075 Ry

     total magnetization       =     0.12 Bohr mag/cell
     absolute magnetization    =     0.52 Bohr mag/cell

     iteration #  3     ecut=    60.00 Ry     beta= 0.70
     Davidson diagonalization with overlap
     ethr =  1.00E-02,  avg # of iterations =  2.8

     total cpu time spent up to now is       72.5 secs

     total energy              =    -340.06820385 Ry
     estimated scf accuracy    <      12.12732079 Ry

     total magnetization       =     0.24 Bohr mag/cell
     absolute magnetization    =     4.40 Bohr mag/cell

     iteration #  4     ecut=    60.00 Ry     beta= 0.70
     Davidson diagonalization with overlap
     ethr =  1.00E-02,  avg # of iterations =  2.0

     total cpu time spent up to now is       73.8 secs

     total energy              =    -339.41094573 Ry
     estimated scf accuracy    <       3.98860038 Ry

     total magnetization       =     0.27 Bohr mag/cell
     absolute magnetization    =     0.83 Bohr mag/cell

     iteration #  5     ecut=    60.00 Ry     beta= 0.70
     Davidson diagonalization with overlap
     ethr =  1.00E-02,  avg # of iterations =  1.7

     total cpu time spent up to now is       75.0 secs

     total energy              =    -339.59571901 Ry
     estimated scf accuracy    <       0.72532294 Ry

     total magnetization       =     0.39 Bohr mag/cell
     absolute magnetization    =     0.46 Bohr mag/cell

     iteration #  6     ecut=    60.00 Ry     beta= 0.70
     Davidson diagonalization with overlap
     ethr =  4.03E-03,  avg # of iterations =  1.0

     total cpu time spent up to now is       76.1 secs

     total energy              =    -339.60616535 Ry
     estimated scf accuracy    <       0.61535675 Ry

     total magnetization       =     0.42 Bohr mag/cell
     absolute magnetization    =     0.83 Bohr mag/cell

     iteration #  7     ecut=    60.00 Ry     beta= 0.70
     Davidson diagonalization with overlap
     ethr =  3.42E-03,  avg # of iterations =  1.0

     total cpu time spent up to now is       77.2 secs

     total energy              =    -339.56483563 Ry
     estimated scf accuracy    <       0.45913909 Ry

     total magnetization       =     0.42 Bohr mag/cell
     absolute magnetization    =     0.56 Bohr mag/cell

     iteration #  8     ecut=    60.00 Ry     beta= 0.70
     Davidson diagonalization with overlap
     ethr =  2.55E-03,  avg # of iterations =  1.0

     total cpu time spent up to now is       78.2 secs

     total energy              =    -339.57170173 Ry
     estimated scf accuracy    <       0.25854907 Ry

     total magnetization       =     0.53 Bohr mag/cell
     absolute magnetization    =     0.67 Bohr mag/cell

     iteration #  9     ecut=    60.00 Ry     beta= 0.70
     Davidson diagonalization with overlap
     ethr =  1.44E-03,  avg # of iterations =  1.0

     total cpu time spent up to now is       79.3 secs

     total energy              =    -339.56685433 Ry
     estimated scf accuracy    <       0.22683279 Ry

     total magnetization       =     0.53 Bohr mag/cell
     absolute magnetization    =     0.58 Bohr mag/cell

     iteration # 10     ecut=    60.00 Ry     beta= 0.70
     Davidson diagonalization with overlap
     ethr =  1.26E-03,  avg # of iterations =  1.0

     total cpu time spent up to now is       80.4 secs

     total energy              =    -339.51374824 Ry
     estimated scf accuracy    <       0.18761877 Ry

     total magnetization       =     0.54 Bohr mag/cell
     absolute magnetization    =     0.56 Bohr mag/cell

     iteration # 11     ecut=    60.00 Ry     beta= 0.70
     Davidson diagonalization with overlap
     ethr =  1.04E-03,  avg # of iterations =  1.3

     total cpu time spent up to now is       81.6 secs

     total energy              =    -339.53466940 Ry
     estimated scf accuracy    <       0.00341343 Ry

     total magnetization       =     0.60 Bohr mag/cell
     absolute magnetization    =     0.64 Bohr mag/cell

     iteration # 12     ecut=    60.00 Ry     beta= 0.70
     Davidson diagonalization with overlap
     ethr =  1.90E-05,  avg # of iterations =  2.2

     total cpu time spent up to now is       83.0 secs

     total energy              =    -339.53599440 Ry
     estimated scf accuracy    <       0.00159534 Ry

     total magnetization       =     0.60 Bohr mag/cell
     absolute magnetization    =     0.65 Bohr mag/cell

     iteration # 13     ecut=    60.00 Ry     beta= 0.70
     Davidson diagonalization with overlap
     ethr =  8.86E-06,  avg # of iterations =  2.0

     total cpu time spent up to now is       84.4 secs

     total energy              =    -339.53644181 Ry
     estimated scf accuracy    <       0.02071998 Ry

     total magnetization       =     0.63 Bohr mag/cell
     absolute magnetization    =     0.69 Bohr mag/cell

     iteration # 14     ecut=    60.00 Ry     beta= 0.70
     Davidson diagonalization with overlap
     ethr =  8.86E-06,  avg # of iterations =  2.0

     total cpu time spent up to now is       85.7 secs

     total energy              =    -339.53398984 Ry
     estimated scf accuracy    <       0.10087566 Ry

     total magnetization       =     0.64 Bohr mag/cell
     absolute magnetization    =     0.89 Bohr mag/cell

     iteration # 15     ecut=    60.00 Ry     beta= 0.70
     Davidson diagonalization with overlap
     ethr =  8.86E-06,  avg # of iterations =  2.0

     total cpu time spent up to now is       87.1 secs

     total energy              =    -339.53609631 Ry
     estimated scf accuracy    <       0.00344195 Ry

     total magnetization       =     0.64 Bohr mag/cell
     absolute magnetization    =     0.69 Bohr mag/cell

     iteration # 16     ecut=    60.00 Ry     beta= 0.70
     Davidson diagonalization with overlap
     ethr =  8.86E-06,  avg # of iterations =  2.0

     total cpu time spent up to now is       88.4 secs

     total energy              =    -339.53621672 Ry
     estimated scf accuracy    <       0.00382649 Ry

     total magnetization       =     0.64 Bohr mag/cell
     absolute magnetization    =     0.70 Bohr mag/cell

     iteration # 17     ecut=    60.00 Ry     beta= 0.70
     Davidson diagonalization with overlap
     ethr =  8.86E-06,  avg # of iterations =  1.0

     total cpu time spent up to now is       89.5 secs

     total energy              =    -339.53606895 Ry
     estimated scf accuracy    <       0.00577872 Ry

     total magnetization       =     0.63 Bohr mag/cell
     absolute magnetization    =     0.69 Bohr mag/cell

     iteration # 18     ecut=    60.00 Ry     beta= 0.70
     Davidson diagonalization with overlap
     ethr =  8.86E-06,  avg # of iterations =  2.0

     total cpu time spent up to now is       90.8 secs

     total energy              =    -339.53633737 Ry
     estimated scf accuracy    <       0.00866975 Ry

     total magnetization       =     0.70 Bohr mag/cell
     absolute magnetization    =     0.77 Bohr mag/cell

     iteration # 19     ecut=    60.00 Ry     beta= 0.70
     Davidson diagonalization with overlap
     ethr =  8.86E-06,  avg # of iterations =  1.0

     total cpu time spent up to now is       91.9 secs

     total energy              =    -339.53637976 Ry
     estimated scf accuracy    <       0.00166354 Ry

     total magnetization       =     0.70 Bohr mag/cell
     absolute magnetization    =     0.76 Bohr mag/cell

     iteration # 20     ecut=    60.00 Ry     beta= 0.70
     Davidson diagonalization with overlap
     ethr =  8.86E-06,  avg # of iterations =  2.0

     total cpu time spent up to now is       93.2 secs

     total energy              =    -339.53644136 Ry
     estimated scf accuracy    <       0.00214931 Ry

     total magnetization       =     0.72 Bohr mag/cell
     absolute magnetization    =     0.79 Bohr mag/cell

     iteration # 21     ecut=    60.00 Ry     beta= 0.70
     Davidson diagonalization with overlap
     ethr =  8.86E-06,  avg # of iterations =  1.5

     total cpu time spent up to now is       94.4 secs

     total energy              =    -339.53652996 Ry
     estimated scf accuracy    <       0.00007386 Ry

     total magnetization       =     0.75 Bohr mag/cell
     absolute magnetization    =     0.82 Bohr mag/cell

     iteration # 22     ecut=    60.00 Ry     beta= 0.70
     Davidson diagonalization with overlap
     ethr =  4.10E-07,  avg # of iterations =  1.4

     total cpu time spent up to now is       95.6 secs

     total energy              =    -339.53653563 Ry
     estimated scf accuracy    <       0.00007522 Ry

     total magnetization       =     0.76 Bohr mag/cell
     absolute magnetization    =     0.83 Bohr mag/cell

     iteration # 23     ecut=    60.00 Ry     beta= 0.70
     Davidson diagonalization with overlap
     ethr =  4.10E-07,  avg # of iterations =  1.2

     total cpu time spent up to now is       96.7 secs

     total energy              =    -339.53654032 Ry
     estimated scf accuracy    <       0.00000131 Ry

     total magnetization       =     0.76 Bohr mag/cell
     absolute magnetization    =     0.84 Bohr mag/cell

     iteration # 24     ecut=    60.00 Ry     beta= 0.70
     Davidson diagonalization with overlap
     ethr =  7.29E-09,  avg # of iterations =  2.0

     total cpu time spent up to now is       98.1 secs

     total energy              =    -339.53654084 Ry
     estimated scf accuracy    <       0.00001059 Ry

     total magnetization       =     0.76 Bohr mag/cell
     absolute magnetization    =     0.84 Bohr mag/cell

     iteration # 25     ecut=    60.00 Ry     beta= 0.70
     Davidson diagonalization with overlap
     ethr =  7.29E-09,  avg # of iterations =  1.5

     total cpu time spent up to now is       99.3 secs

     total energy              =    -339.53654077 Ry
     estimated scf accuracy    <       0.00000963 Ry

     total magnetization       =     0.76 Bohr mag/cell
     absolute magnetization    =     0.84 Bohr mag/cell

     iteration # 26     ecut=    60.00 Ry     beta= 0.70
     Davidson diagonalization with overlap
     ethr =  7.29E-09,  avg # of iterations =  1.0

     total cpu time spent up to now is      100.4 secs

     total energy              =    -339.53654081 Ry
     estimated scf accuracy    <       0.00000344 Ry

     total magnetization       =     0.76 Bohr mag/cell
     absolute magnetization    =     0.84 Bohr mag/cell

     iteration # 27     ecut=    60.00 Ry     beta= 0.70
     Davidson diagonalization with overlap
     ethr =  7.29E-09,  avg # of iterations =  2.0

     total cpu time spent up to now is      101.8 secs

     total energy              =    -339.53654109 Ry
     estimated scf accuracy    <       0.00001749 Ry

     total magnetization       =     0.76 Bohr mag/cell
     absolute magnetization    =     0.84 Bohr mag/cell

     iteration # 28     ecut=    60.00 Ry     beta= 0.70
     Davidson diagonalization with overlap
     ethr =  7.29E-09,  avg # of iterations =  1.2

     total cpu time spent up to now is      102.9 secs

     total energy              =    -339.53654049 Ry
     estimated scf accuracy    <       0.00002341 Ry

     total magnetization       =     0.76 Bohr mag/cell
     absolute magnetization    =     0.84 Bohr mag/cell

     iteration # 29     ecut=    60.00 Ry     beta= 0.70
     Davidson diagonalization with overlap
     ethr =  7.29E-09,  avg # of iterations =  2.0

     total cpu time spent up to now is      104.3 secs

     total energy              =    -339.53654063 Ry
     estimated scf accuracy    <       0.00001307 Ry

     total magnetization       =     0.76 Bohr mag/cell
     absolute magnetization    =     0.84 Bohr mag/cell

     iteration # 30     ecut=    60.00 Ry     beta= 0.70
     Davidson diagonalization with overlap
     ethr =  7.29E-09,  avg # of iterations =  2.0

     total cpu time spent up to now is      105.6 secs

     total energy              =    -339.53654084 Ry
     estimated scf accuracy    <       0.00000174 Ry

     total magnetization       =     0.76 Bohr mag/cell
     absolute magnetization    =     0.84 Bohr mag/cell

     iteration # 31     ecut=    60.00 Ry     beta= 0.70
     Davidson diagonalization with overlap
     ethr =  7.29E-09,  avg # of iterations =  1.0

     total cpu time spent up to now is      106.7 secs

     total energy              =    -339.53654089 Ry
     estimated scf accuracy    <       0.00000003 Ry

     total magnetization       =     0.76 Bohr mag/cell
     absolute magnetization    =     0.84 Bohr mag/cell

     iteration # 32     ecut=    60.00 Ry     beta= 0.70
     Davidson diagonalization with overlap
     ethr =  1.66E-10,  avg # of iterations =  1.0

     total cpu time spent up to now is      107.7 secs

     total energy              =    -339.53654090 Ry
     estimated scf accuracy    <          4.8E-09 Ry

     total magnetization       =     0.76 Bohr mag/cell
     absolute magnetization    =     0.84 Bohr mag/cell

     iteration # 33     ecut=    60.00 Ry     beta= 0.70
     Davidson diagonalization with overlap
     ethr =  2.65E-11,  avg # of iterations =  1.5

     total cpu time spent up to now is      109.0 secs

     total energy              =    -339.53654090 Ry
     estimated scf accuracy    <          5.2E-09 Ry

     total magnetization       =     0.76 Bohr mag/cell
     absolute magnetization    =     0.84 Bohr mag/cell

     iteration # 34     ecut=    60.00 Ry     beta= 0.70
     Davidson diagonalization with overlap
     ethr =  2.65E-11,  avg # of iterations =  1.4

     Magnetic moment per site  (integrated on atomic sphere of radius R)
     atom   1 (R=0.413)  charge= 15.8942  magn=  0.7930

     total cpu time spent up to now is      110.2 secs

     End of self-consistent calculation

     Number of k-points >= 100: set verbosity='high' to print the bands.

     the Fermi energy is    14.1530 ev

!    total energy              =    -339.53654090 Ry
     estimated scf accuracy    <          3.5E-10 Ry
     smearing contrib. (-TS)   =       0.00015730 Ry
     internal energy E=F+TS    =    -339.53669819 Ry

     The total energy is F=E-TS. E is the sum of the following terms:
     one-electron contribution =    -217.65461024 Ry
     hartree contribution      =     117.86968027 Ry
     xc contribution           =     -34.29840801 Ry
     ewald contribution        =    -205.45336022 Ry

     total magnetization       =     0.76 Bohr mag/cell
     absolute magnetization    =     0.84 Bohr mag/cell

     convergence has been achieved in  34 iterations

     Forces acting on atoms (cartesian axes, Ry/au):

     atom    1 type  1   force =     0.00000000    0.00000000    0.00000000

     Total force =     0.000000     Total SCF correction =     0.000019


     Computing stress (Cartesian axis) and pressure

          total   stress  (Ry/bohr**3)                   (kbar)     P=     -141.46
  -0.00074516   0.00000004   0.00000000         -109.62        0.01        0.00
   0.00000004  -0.00074536   0.00000001            0.01     -109.65        0.00
   0.00000000   0.00000001  -0.00139428            0.00        0.00     -205.11

     Energy error            =      1.2E-02 Ry
     Gradient error          =      0.0E+00 Ry/Bohr
     Cell gradient error     =      2.1E+02 kbar

     number of scf cycles    =   3
     number of bfgs steps    =   2

     enthalpy           old  =    -339.5246948022 Ry
     enthalpy           new  =    -339.5365408968 Ry

     CASE: enthalpy          _new < enthalpy          _old

     new trust radius        =       0.1701373788 bohr
     new conv_thr            =       0.0000000010 Ry

     new unit-cell volume =     80.78064 a.u.^3 (    11.97046 Ang^3 )
     density =      8.14194 g/cm^3

CELL_PARAMETERS (bohr)
   4.322838883  -0.000013039  -0.000020696
  -0.000013039   4.322835156  -0.000033755
  -0.000026904  -0.000044144   4.322844028

ATOMIC_POSITIONS (crystal)
Ni            0.0000000000        0.0000000000        0.0000000000



     Writing config-only to output data dir ./out/pwscf.save/
     NEW-OLD atomic charge density approx. for the potential

     Check: negative core charge=   -0.000002
     extrapolated charge   16.22297, renormalised to   18.00000
     Generating pointlists ...

     total cpu time spent up to now is      110.7 secs

     Self-consistent Calculation

     iteration #  1     ecut=    60.00 Ry     beta= 0.70
     Davidson diagonalization with overlap
     ethr =  1.00E-06,  avg # of iterations =  8.9

     total cpu time spent up to now is      114.8 secs

     total energy              =    -332.49782507 Ry
     estimated scf accuracy    <       8.15457186 Ry

     total magnetization       =    -0.00 Bohr mag/cell
     absolute magnetization    =     0.06 Bohr mag/cell

     iteration #  2     ecut=    60.00 Ry     beta= 0.70
     Davidson diagonalization with overlap
     ethr =  1.00E-02,  avg # of iterations =  3.6

     total cpu time spent up to now is      116.7 secs

     total energy              =    -339.06118714 Ry
     estimated scf accuracy    <      25.45530718 Ry

     total magnetization       =     0.13 Bohr mag/cell
     absolute magnetization    =     0.14 Bohr mag/cell

     iteration #  3     ecut=    60.00 Ry     beta= 0.70
     Davidson diagonalization with overlap
     ethr =  1.00E-02,  avg # of iterations =  3.0

     total cpu time spent up to now is      118.4 secs

     total energy              =    -339.34869532 Ry
     estimated scf accuracy    <       4.75965379 Ry

     total magnetization       =     0.16 Bohr mag/cell
     absolute magnetization    =     0.22 Bohr mag/cell

     iteration #  4     ecut=    60.00 Ry     beta= 0.70
     Davidson diagonalization with overlap
     ethr =  1.00E-02,  avg # of iterations =  2.0

     total cpu time spent up to now is      119.7 secs

     total energy              =    -339.60660077 Ry
     estimated scf accuracy    <       2.09162176 Ry

     total magnetization       =     0.26 Bohr mag/cell
     absolute magnetization    =     1.82 Bohr mag/cell

     iteration #  5     ecut=    60.00 Ry     beta= 0.70
     Davidson diagonalization with overlap
     ethr =  1.00E-02,  avg # of iterations =  1.0

     total cpu time spent up to now is      120.8 secs

     total energy              =    -339.59200847 Ry
     estimated scf accuracy    <       0.52912562 Ry

     total magnetization       =     0.26 Bohr mag/cell
     absolute magnetization    =     0.35 Bohr mag/cell

     iteration #  6     ecut=    60.00 Ry     beta= 0.70
     Davidson diagonalization with overlap
     ethr =  2.94E-03,  avg # of iterations =  1.0

     total cpu time spent up to now is      121.9 secs

     total energy              =    -339.59387280 Ry
     estimated scf accuracy    <       0.40715172 Ry

     total magnetization       =     0.34 Bohr mag/cell
     absolute magnetization    =     0.49 Bohr mag/cell

     iteration #  7     ecut=    60.00 Ry     beta= 0.70
     Davidson diagonalization with overlap
     ethr =  2.26E-03,  avg # of iterations =  1.0

     total cpu time spent up to now is      122.9 secs

     total energy              =    -339.58213734 Ry
     estimated scf accuracy    <       0.57457502 Ry

     total magnetization       =     0.35 Bohr mag/cell
     absolute magnetization    =     0.94 Bohr mag/cell

     iteration #  8     ecut=    60.00 Ry     beta= 0.70
     Davidson diagonalization with overlap
     ethr =  2.26E-03,  avg # of iterations =  1.0

     total cpu time spent up to now is      124.0 secs

     total energy              =    -339.54047094 Ry
     estimated scf accuracy    <       0.25098825 Ry

     total magnetization       =     0.36 Bohr mag/cell
     absolute magnetization    =     0.37 Bohr mag/cell

     iteration #  9     ecut=    60.00 Ry     beta= 0.70
     Davidson diagonalization with overlap
     ethr =  1.39E-03,  avg # of iterations =  1.0

     total cpu time spent up to now is      125.1 secs

     total energy              =    -339.54800669 Ry
     estimated scf accuracy    <       0.05871105 Ry

     total magnetization       =     0.43 Bohr mag/cell
     absolute magnetization    =     0.44 Bohr mag/cell

     iteration # 10     ecut=    60.00 Ry     beta= 0.70
     Davidson diagonalization with overlap
     ethr =  3.26E-04,  avg # of iterations =  1.0

     total cpu time spent up to now is      126.2 secs

     total energy              =    -339.53528486 Ry
     estimated scf accuracy    <       0.05054929 Ry

     total magnetization       =     0.44 Bohr mag/cell
     absolute magnetization    =     0.49 Bohr mag/cell

     iteration # 11     ecut=    60.00 Ry     beta= 0.70
     Davidson diagonalization with overlap
     ethr =  2.81E-04,  avg # of iterations =  2.0

     total cpu time spent up to now is      127.5 secs

     total energy              =    -339.54176924 Ry
     estimated scf accuracy    <       0.06094395 Ry

     total magnetization       =     0.44 Bohr mag/cell
     absolute magnetization    =     0.61 Bohr mag/cell

     iteration # 12     ecut=    60.00 Ry     beta= 0.70
     Davidson diagonalization with overlap
     ethr =  2.81E-04,  avg # of iterations =  1.0

     total cpu time spent up to now is      128.5 secs

     total energy              =    -339.54145083 Ry
     estimated scf accuracy    <       0.05489581 Ry

     total magnetization       =     0.45 Bohr mag/cell
     absolute magnetization    =     0.61 Bohr mag/cell

     iteration # 13     ecut=    60.00 Ry     beta= 0.70
     Davidson diagonalization with overlap
     ethr =  2.81E-04,  avg # of iterations =  1.0

     total cpu time spent up to now is      129.6 secs

     total energy              =    -339.54147480 Ry
     estimated scf accuracy    <       0.04285404 Ry

     total magnetization       =     0.53 Bohr mag/cell
     absolute magnetization    =     0.65 Bohr mag/cell

     iteration # 14     ecut=    60.00 Ry     beta= 0.70
     Davidson diagonalization with overlap
     ethr =  2.38E-04,  avg # of iterations =  1.0

     total cpu time spent up to now is      130.7 secs

     total energy              =    -339.54179654 Ry
     estimated scf accuracy    <       0.03207009 Ry

     total magnetization       =     0.56 Bohr mag/cell
     absolute magnetization    =     0.66 Bohr mag/cell

     iteration # 15     ecut=    60.00 Ry     beta= 0.70
     Davidson diagonalization with overlap
     ethr =  1.78E-04,  avg # of iterations =  1.0

     total cpu time spent up to now is      131.8 secs

     total energy              =    -339.53799076 Ry
     estimated scf accuracy    <       0.07619206 Ry

     total magnetization       =     0.44 Bohr mag/cell
     absolute magnetization    =     0.65 Bohr mag/cell

     iteration # 16     ecut=    60.00 Ry     beta= 0.70
     Davidson diagonalization with overlap
     ethr =  1.78E-04,  avg # of iterations =  1.0

     total cpu time spent up to now is      132.9 secs

     total energy              =    -339.54235116 Ry
     estimated scf accuracy    <       0.03359622 Ry

     total magnetization       =     0.74 Bohr mag/cell
     absolute magnetization    =     0.83 Bohr mag/cell

     iteration # 17     ecut=    60.00 Ry     beta= 0.70
     Davidson diagonalization with overlap
     ethr =  1.78E-04,  avg # of iterations =  1.6

     total cpu time spent up to now is      134.1 secs

     total energy              =    -339.54074817 Ry
     estimated scf accuracy    <       0.17743722 Ry

     total magnetization       =     0.72 Bohr mag/cell
     absolute magnetization    =     1.04 Bohr mag/cell

     iteration # 18     ecut=    60.00 Ry     beta= 0.70
     Davidson diagonalization with overlap
     ethr =  1.78E-04,  avg # of iterations =  2.0

     total cpu time spent up to now is      135.4 secs

     total energy              =    -339.53122330 Ry
     estimated scf accuracy    <       0.19184565 Ry

     total magnetization       =     0.70 Bohr mag/cell
     absolute magnetization    =     1.02 Bohr mag/cell

     iteration # 19     ecut=    60.00 Ry     beta= 0.70
     Davidson diagonalization with overlap
     ethr =  1.78E-04,  avg # of iterations =  2.0

     total cpu time spent up to now is      136.7 secs

     total energy              =    -339.54106374 Ry
     estimated scf accuracy    <       0.00343895 Ry

     total magnetization       =     0.29 Bohr mag/cell
     absolute magnetization    =     0.31 Bohr mag/cell

     iteration # 20     ecut=    60.00 Ry     beta= 0.70
     Davidson diagonalization with overlap
     ethr =  1.91E-05,  avg # of iterations =  1.5

     total cpu time spent up to now is      137.9 secs

     total energy              =    -339.54119745 Ry
     estimated scf accuracy    <       0.00340402 Ry

     total magnetization       =     0.29 Bohr mag/cell
     absolute magnetization    =     0.32 Bohr mag/cell

     iteration # 21     ecut=    60.00 Ry     beta= 0.70
     Davidson diagonalization with overlap
     ethr =  1.89E-05,  avg # of iterations =  1.0

     total cpu time spent up to now is      139.0 secs

     total energy              =    -339.54145051 Ry
     estimated scf accuracy    <       0.00465391 Ry

     total magnetization       =     0.38 Bohr mag/cell
     absolute magnetization    =     0.42 Bohr mag/cell

     iteration # 22     ecut=    60.00 Ry     beta= 0.70
     Davidson diagonalization with overlap
     ethr =  1.89E-05,  avg # of iterations =  1.0

     total cpu time spent up to now is      140.1 secs

     total energy              =    -339.54153159 Ry
     estimated scf accuracy    <       0.00099559 Ry

     total magnetization       =     0.38 Bohr mag/cell
     absolute magnetization    =     0.41 Bohr mag/cell

     iteration # 23     ecut=    60.00 Ry     beta= 0.70
     Davidson diagonalization with overlap
     ethr =  5.53E-06,  avg # of iterations =  1.0

     total cpu time spent up to now is      141.2 secs

     total energy              =    -339.54147981 Ry
     estimated scf accuracy    <       0.00157421 Ry

     total magnetization       =     0.40 Bohr mag/cell
     absolute magnetization    =     0.43 Bohr mag/cell

     iteration # 24     ecut=    60.00 Ry     beta= 0.70
     Davidson diagonalization with overlap
     ethr =  5.53E-06,  avg # of iterations =  1.5

     total cpu time spent up to now is      142.4 secs

     total energy              =    -339.54160568 Ry
     estimated scf accuracy    <       0.00008363 Ry

     total magnetization       =     0.45 Bohr mag/cell
     absolute magnetization    =     0.49 Bohr mag/cell

     iteration # 25     ecut=    60.00 Ry     beta= 0.70
     Davidson diagonalization with overlap
     ethr =  4.65E-07,  avg # of iterations =  1.1

     total cpu time spent up to now is      143.5 secs

     total energy              =    -339.54119426 Ry
     estimated scf accuracy    <       0.00006554 Ry

     total magnetization       =     0.49 Bohr mag/cell
     absolute magnetization    =     0.52 Bohr mag/cell

     iteration # 26     ecut=    60.00 Ry     beta= 0.70
     Davidson diagonalization with overlap
     ethr =  3.64E-07,  avg # of iterations =  2.6

     total cpu time spent up to now is      145.1 secs

     total energy              =    -339.54174228 Ry
     estimated scf accuracy    <       0.00004694 Ry

     total magnetization       =     0.63 Bohr mag/cell
     absolute magnetization    =     0.67 Bohr mag/cell

     iteration # 27     ecut=    60.00 Ry     beta= 0.70
     Davidson diagonalization with overlap
     ethr =  2.61E-07,  avg # of iterations =  1.5

     total cpu time spent up to now is      146.4 secs

     total energy              =    -339.54175662 Ry
     estimated scf accuracy    <       0.00009404 Ry

     total magnetization       =     0.65 Bohr mag/cell
     absolute magnetization    =     0.69 Bohr mag/cell

     iteration # 28     ecut=    60.00 Ry     beta= 0.70
     Davidson diagonalization with overlap
     ethr =  2.61E-07,  avg # of iterations =  1.0

     total cpu time spent up to now is      147.5 secs

     total energy              =    -339.54174854 Ry
     estimated scf accuracy    <       0.00013867 Ry

     total magnetization       =     0.66 Bohr mag/cell
     absolute magnetization    =     0.71 Bohr mag/cell

     iteration # 29     ecut=    60.00 Ry     beta= 0.70
     Davidson diagonalization with overlap
     ethr =  2.61E-07,  avg # of iterations =  1.0

     total cpu time spent up to now is      148.6 secs

     total energy              =    -339.54080745 Ry
     estimated scf accuracy    <       0.00011194 Ry

     total magnetization       =     0.69 Bohr mag/cell
     absolute magnetization    =     0.73 Bohr mag/cell

     iteration # 30     ecut=    60.00 Ry     beta= 0.70
     Davidson diagonalization with overlap
     ethr =  2.61E-07,  avg # of iterations =  3.0

     total cpu time spent up to now is      150.3 secs

     total energy              =    -339.54131515 Ry
     estimated scf accuracy    <       0.00022356 Ry

     total magnetization       =     0.50 Bohr mag/cell
     absolute magnetization    =     0.54 Bohr mag/cell

     iteration # 31     ecut=    60.00 Ry     beta= 0.70
     Davidson diagonalization with overlap
     ethr =  2.61E-07,  avg # of iterations =  2.5

     total cpu time spent up to now is      151.9 secs

     total energy              =    -339.54162582 Ry
     estimated scf accuracy    <       0.00025145 Ry

     total magnetization       =     0.63 Bohr mag/cell
     absolute magnetization    =     0.67 Bohr mag/cell

     iteration # 32     ecut=    60.00 Ry     beta= 0.70
     Davidson diagonalization with overlap
     ethr =  2.61E-07,  avg # of iterations =  1.6

     total cpu time spent up to now is      153.2 secs

     total energy              =    -339.54170379 Ry
     estimated scf accuracy    <       0.00025190 Ry

     total magnetization       =     0.58 Bohr mag/cell
     absolute magnetization    =     0.61 Bohr mag/cell

     iteration # 33     ecut=    60.00 Ry     beta= 0.70
     Davidson diagonalization with overlap
     ethr =  2.61E-07,  avg # of iterations =  1.1

     total cpu time spent up to now is      154.4 secs

     total energy              =    -339.54168868 Ry
     estimated scf accuracy    <       0.00047358 Ry

     total magnetization       =     0.57 Bohr mag/cell
     absolute magnetization    =     0.61 Bohr mag/cell

     iteration # 34     ecut=    60.00 Ry     beta= 0.70
     Davidson diagonalization with overlap
     ethr =  2.61E-07,  avg # of iterations =  1.0

     total cpu time spent up to now is      155.4 secs

     total energy              =    -339.54166198 Ry
     estimated scf accuracy    <       0.00059692 Ry

     total magnetization       =     0.56 Bohr mag/cell
     absolute magnetization    =     0.59 Bohr mag/cell

     iteration # 35     ecut=    60.00 Ry     beta= 0.70
     Davidson diagonalization with overlap
     ethr =  2.61E-07,  avg # of iterations =  1.8

     total cpu time spent up to now is      156.7 secs

     total energy              =    -339.54160949 Ry
     estimated scf accuracy    <       0.00068765 Ry

     total magnetization       =     0.53 Bohr mag/cell
     absolute magnetization    =     0.57 Bohr mag/cell

     iteration # 36     ecut=    60.00 Ry     beta= 0.70
     Davidson diagonalization with overlap
     ethr =  2.61E-07,  avg # of iterations =  2.0

     total cpu time spent up to now is      158.0 secs

     total energy              =    -339.54125083 Ry
     estimated scf accuracy    <       0.00106670 Ry

     total magnetization       =     0.61 Bohr mag/cell
     absolute magnetization    =     0.64 Bohr mag/cell

     iteration # 37     ecut=    60.00 Ry     beta= 0.70
     Davidson diagonalization with overlap
     ethr =  2.61E-07,  avg # of iterations =  2.8

     total cpu time spent up to now is      159.7 secs

     total energy              =    -339.54040682 Ry
     estimated scf accuracy    <       0.00021145 Ry

     total magnetization       =     0.72 Bohr mag/cell
     absolute magnetization    =     0.77 Bohr mag/cell

     iteration # 38     ecut=    60.00 Ry     beta= 0.70
     Davidson diagonalization with overlap
     ethr =  2.61E-07,  avg # of iterations =  3.1

     total cpu time spent up to now is      161.4 secs

     total energy              =    -339.54164678 Ry
     estimated scf accuracy    <       0.00011061 Ry

     total magnetization       =     0.51 Bohr mag/cell
     absolute magnetization    =     0.54 Bohr mag/cell

     iteration # 39     ecut=    60.00 Ry     beta= 0.70
     Davidson diagonalization with overlap
     ethr =  2.61E-07,  avg # of iterations =  1.2

     total cpu time spent up to now is      162.6 secs

     total energy              =    -339.54150152 Ry
     estimated scf accuracy    <       0.00013257 Ry

     total magnetization       =     0.54 Bohr mag/cell
     absolute magnetization    =     0.58 Bohr mag/cell

     iteration # 40     ecut=    60.00 Ry     beta= 0.70
     Davidson diagonalization with overlap
     ethr =  2.61E-07,  avg # of iterations =  2.1

     total cpu time spent up to now is      164.0 secs

     total energy              =    -339.54169752 Ry
     estimated scf accuracy    <       0.00004000 Ry

     total magnetization       =     0.64 Bohr mag/cell
     absolute magnetization    =     0.68 Bohr mag/cell

     iteration # 41     ecut=    60.00 Ry     beta= 0.70
     Davidson diagonalization with overlap
     ethr =  2.22E-07,  avg # of iterations =  2.0

     total cpu time spent up to now is      165.3 secs

     total energy              =    -339.54174040 Ry
     estimated scf accuracy    <       0.00000137 Ry

     total magnetization       =     0.69 Bohr mag/cell
     absolute magnetization    =     0.73 Bohr mag/cell

     iteration # 42     ecut=    60.00 Ry     beta= 0.70
     Davidson diagonalization with overlap
     ethr =  7.59E-09,  avg # of iterations =  2.6

     total cpu time spent up to now is      166.9 secs

     total energy              =    -339.54175995 Ry
     estimated scf accuracy    <       0.00000341 Ry

     total magnetization       =     0.66 Bohr mag/cell
     absolute magnetization    =     0.70 Bohr mag/cell

     iteration # 43     ecut=    60.00 Ry     beta= 0.70
     Davidson diagonalization with overlap
     ethr =  7.59E-09,  avg # of iterations =  1.6

     total cpu time spent up to now is      168.2 secs

     total energy              =    -339.54176175 Ry
     estimated scf accuracy    <       0.00000184 Ry

     total magnetization       =     0.67 Bohr mag/cell
     absolute magnetization    =     0.71 Bohr mag/cell

     iteration # 44     ecut=    60.00 Ry     beta= 0.70
     Davidson diagonalization with overlap
     ethr =  7.59E-09,  avg # of iterations =  1.0

     total cpu time spent up to now is      169.3 secs

     total energy              =    -339.54176077 Ry
     estimated scf accuracy    <       0.00000154 Ry

     total magnetization       =     0.67 Bohr mag/cell
     absolute magnetization    =     0.71 Bohr mag/cell

     iteration # 45     ecut=    60.00 Ry     beta= 0.70
     Davidson diagonalization with overlap
     ethr =  7.59E-09,  avg # of iterations =  1.0

     total cpu time spent up to now is      170.4 secs

     total energy              =    -339.54176122 Ry
     estimated scf accuracy    <       0.00000174 Ry

     total magnetization       =     0.67 Bohr mag/cell
     absolute magnetization    =     0.71 Bohr mag/cell

     iteration # 46     ecut=    60.00 Ry     beta= 0.70
     Davidson diagonalization with overlap
     ethr =  7.59E-09,  avg # of iterations =  1.0

     total cpu time spent up to now is      171.5 secs

     total energy              =    -339.54175783 Ry
     estimated scf accuracy    <       0.00000229 Ry

     total magnetization       =     0.67 Bohr mag/cell
     absolute magnetization    =     0.71 Bohr mag/cell

     iteration # 47     ecut=    60.00 Ry     beta= 0.70
     Davidson diagonalization with overlap
     ethr =  7.59E-09,  avg # of iterations =  1.6

     total cpu time spent up to now is      172.8 secs

     total energy              =    -339.54175509 Ry
     estimated scf accuracy    <       0.00000460 Ry

     total magnetization       =     0.66 Bohr mag/cell
     absolute magnetization    =     0.70 Bohr mag/cell

     iteration # 48     ecut=    60.00 Ry     beta= 0.70
     Davidson diagonalization with overlap
     ethr =  7.59E-09,  avg # of iterations =  2.3

     total cpu time spent up to now is      174.3 secs

     total energy              =    -339.54176256 Ry
     estimated scf accuracy    <       0.00000288 Ry

     total magnetization       =     0.68 Bohr mag/cell
     absolute magnetization    =     0.72 Bohr mag/cell

     iteration # 49     ecut=    60.00 Ry     beta= 0.70
     Davidson diagonalization with overlap
     ethr =  7.59E-09,  avg # of iterations =  2.0

     total cpu time spent up to now is      175.7 secs

     total energy              =    -339.54176375 Ry
     estimated scf accuracy    <       0.00000443 Ry

     total magnetization       =     0.68 Bohr mag/cell
     absolute magnetization    =     0.72 Bohr mag/cell

     iteration # 50     ecut=    60.00 Ry     beta= 0.70
     Davidson diagonalization with overlap
     ethr =  7.59E-09,  avg # of iterations =  1.0

     total cpu time spent up to now is      176.7 secs

     total energy              =    -339.54176374 Ry
     estimated scf accuracy    <       0.00000347 Ry

     total magnetization       =     0.68 Bohr mag/cell
     absolute magnetization    =     0.72 Bohr mag/cell

     iteration # 51     ecut=    60.00 Ry     beta= 0.70
     Davidson diagonalization with overlap
     ethr =  7.59E-09,  avg # of iterations =  1.0

     total cpu time spent up to now is      177.8 secs

     total energy              =    -339.54176347 Ry
     estimated scf accuracy    <       0.00000451 Ry

     total magnetization       =     0.68 Bohr mag/cell
     absolute magnetization    =     0.73 Bohr mag/cell

     iteration # 52     ecut=    60.00 Ry     beta= 0.70
     Davidson diagonalization with overlap
     ethr =  7.59E-09,  avg # of iterations =  1.5

     total cpu time spent up to now is      179.1 secs

     total energy              =    -339.54176374 Ry
     estimated scf accuracy    <       0.00000005 Ry

     total magnetization       =     0.68 Bohr mag/cell
     absolute magnetization    =     0.72 Bohr mag/cell

     iteration # 53     ecut=    60.00 Ry     beta= 0.70
     Davidson diagonalization with overlap
     ethr =  2.61E-10,  avg # of iterations =  1.6

     total cpu time spent up to now is      180.4 secs

     total energy              =    -339.54176376 Ry
     estimated scf accuracy    <       0.00000011 Ry

     total magnetization       =     0.68 Bohr mag/cell
     absolute magnetization    =     0.72 Bohr mag/cell

     iteration # 54     ecut=    60.00 Ry     beta= 0.70
     Davidson diagonalization with overlap
     ethr =  2.61E-10,  avg # of iterations =  1.5

     total cpu time spent up to now is      181.7 secs

     total energy              =    -339.54176377 Ry
     estimated scf accuracy    <       0.00000008 Ry

     total magnetization       =     0.68 Bohr mag/cell
     absolute magnetization    =     0.72 Bohr mag/cell

     iteration # 55     ecut=    60.00 Ry     beta= 0.70
     Davidson diagonalization with overlap
     ethr =  2.61E-10,  avg # of iterations =  1.1

     total cpu time spent up to now is      182.8 secs

     total energy              =    -339.54176377 Ry
     estimated scf accuracy    <          7.8E-09 Ry

     total magnetization       =     0.68 Bohr mag/cell
     absolute magnetization    =     0.72 Bohr mag/cell

     iteration # 56     ecut=    60.00 Ry     beta= 0.70
     Davidson diagonalization with overlap
     ethr =  4.35E-11,  avg # of iterations =  1.0

     total cpu time spent up to now is      183.9 secs

     total energy              =    -339.54176377 Ry
     estimated scf accuracy    <          9.3E-09 Ry

     total magnetization       =     0.68 Bohr mag/cell
     absolute magnetization    =     0.72 Bohr mag/cell

     iteration # 57     ecut=    60.00 Ry     beta= 0.70
     Davidson diagonalization with overlap
     ethr =  4.35E-11,  avg # of iterations =  1.0

     total cpu time spent up to now is      185.0 secs

     total energy              =    -339.54176377 Ry
     estimated scf accuracy    <          1.3E-09 Ry

     total magnetization       =     0.68 Bohr mag/cell
     absolute magnetization    =     0.72 Bohr mag/cell

     iteration # 58     ecut=    60.00 Ry     beta= 0.70
     Davidson diagonalization with overlap
     ethr =  7.10E-12,  avg # of iterations =  1.0

     Magnetic moment per site  (integrated on atomic sphere of radius R)
     atom   1 (R=0.413)  charge= 15.9297  magn=  0.6960

     total cpu time spent up to now is      186.1 secs

     End of self-consistent calculation

     Number of k-points >= 100: set verbosity='high' to print the bands.

     the Fermi energy is    15.9571 ev

!    total energy              =    -339.54176377 Ry
     estimated scf accuracy    <          1.4E-10 Ry
     smearing contrib. (-TS)   =       0.00023864 Ry
     internal energy E=F+TS    =    -339.54200241 Ry

     The total energy is F=E-TS. E is the sum of the following terms:
     one-electron contribution =    -205.46852502 Ry
     hartree contribution      =     112.92493074 Ry
     xc contribution           =     -34.34086807 Ry
     ewald contribution        =    -212.65754006 Ry

     total magnetization       =     0.68 Bohr mag/cell
     absolute magnetization    =     0.72 Bohr mag/cell

     convergence has been achieved in  58 iterations

     Forces acting on atoms (cartesian axes, Ry/au):

     atom    1 type  1   force =     0.00000000    0.00000000    0.00000000

     Total force =     0.000000     Total SCF correction =     0.000009


     Computing stress (Cartesian axis) and pressure

          total   stress  (Ry/bohr**3)                   (kbar)     P=      -27.65
  -0.00049403   0.00000004  -0.00000000          -72.67        0.01       -0.00
   0.00000004  -0.00049399  -0.00000000            0.01      -72.67       -0.00
  -0.00000000  -0.00000000   0.00042405           -0.00       -0.00       62.38

     Energy error            =      5.2E-03 Ry
     Gradient error          =      0.0E+00 Ry/Bohr
     Cell gradient error     =      7.3E+01 kbar

     number of scf cycles    =   4
     number of bfgs steps    =   3

     enthalpy           old  =    -339.5365408968 Ry
     enthalpy           new  =    -339.5417637691 Ry

     CASE: enthalpy          _new < enthalpy          _old

     new trust radius        =       0.0476519647 bohr
     new conv_thr            =       0.0000000010 Ry

     new unit-cell volume =     81.43543 a.u.^3 (    12.06749 Ang^3 )
     density =      8.07647 g/cm^3

CELL_PARAMETERS (bohr)
   4.283911803  -0.000009738  -0.000019548
  -0.000009737   4.283911290  -0.000031910
  -0.000025949  -0.000042649   4.437439310

ATOMIC_POSITIONS (crystal)
Ni            0.0000000000        0.0000000000        0.0000000000



     Writing config-only to output data dir ./out/pwscf.save/
     NEW-OLD atomic charge density approx. for the potential

     Check: negative core charge=   -0.000002
     extrapolated charge   18.14473, renormalised to   18.00000
     Generating pointlists ...

     total cpu time spent up to now is      186.6 secs

     Self-consistent Calculation

     iteration #  1     ecut=    60.00 Ry     beta= 0.70
     Davidson diagonalization with overlap
     ethr =  1.00E-06,  avg # of iterations =  6.6

     total cpu time spent up to now is      189.7 secs

     total energy              =    -339.44106542 Ry
     estimated scf accuracy    <       0.12072531 Ry

     total magnetization       =     0.72 Bohr mag/cell
     absolute magnetization    =     0.76 Bohr mag/cell

     iteration #  2     ecut=    60.00 Ry     beta= 0.70
     Davidson diagonalization with overlap
     ethr =  6.71E-04,  avg # of iterations =  2.9

     total cpu time spent up to now is      191.4 secs

     total energy              =    -339.51679260 Ry
     estimated scf accuracy    <       0.55536138 Ry

     total magnetization       =     0.52 Bohr mag/cell
     absolute magnetization    =     0.59 Bohr mag/cell

     iteration #  3     ecut=    60.00 Ry     beta= 0.70
     Davidson diagonalization with overlap
     ethr =  6.71E-04,  avg # of iterations =  2.0

     total cpu time spent up to now is      192.7 secs

     total energy              =    -339.55266940 Ry
     estimated scf accuracy    <       0.08963549 Ry

     total magnetization       =     0.62 Bohr mag/cell
     absolute magnetization    =     0.73 Bohr mag/cell

     iteration #  4     ecut=    60.00 Ry     beta= 0.70
     Davidson diagonalization with overlap
     ethr =  4.98E-04,  avg # of iterations =  1.0

     total cpu time spent up to now is      193.8 secs

     total energy              =    -339.54237074 Ry
     estimated scf accuracy    <       0.06760823 Ry

     total magnetization       =     0.62 Bohr mag/cell
     absolute magnetization    =     0.68 Bohr mag/cell

     iteration #  5     ecut=    60.00 Ry     beta= 0.70
     Davidson diagonalization with overlap
     ethr =  3.76E-04,  avg # of iterations =  1.0

     total cpu time spent up to now is      194.9 secs

     total energy              =    -339.54478678 Ry
     estimated scf accuracy    <       0.01575207 Ry

     total magnetization       =     0.63 Bohr mag/cell
     absolute magnetization    =     0.68 Bohr mag/cell

     iteration #  6     ecut=    60.00 Ry     beta= 0.70
     Davidson diagonalization with overlap
     ethr =  8.75E-05,  avg # of iterations =  1.0

     total cpu time spent up to now is      196.0 secs

     total energy              =    -339.54424607 Ry
     estimated scf accuracy    <       0.01563480 Ry

     total magnetization       =     0.63 Bohr mag/cell
     absolute magnetization    =     0.68 Bohr mag/cell

     iteration #  7     ecut=    60.00 Ry     beta= 0.70
     Davidson diagonalization with overlap
     ethr =  8.69E-05,  avg # of iterations =  1.0

     total cpu time spent up to now is      197.1 secs

     total energy              =    -339.54356092 Ry
     estimated scf accuracy    <       0.01176334 Ry

     total magnetization       =     0.63 Bohr mag/cell
     absolute magnetization    =     0.68 Bohr mag/cell

     iteration #  8     ecut=    60.00 Ry     beta= 0.70
     Davidson diagonalization with overlap
     ethr =  6.54E-05,  avg # of iterations =  1.0

     total cpu time spent up to now is      198.1 secs

     total energy              =    -339.54362184 Ry
     estimated scf accuracy    <       0.00775143 Ry

     total magnetization       =     0.63 Bohr mag/cell
     absolute magnetization    =     0.69 Bohr mag/cell

     iteration #  9     ecut=    60.00 Ry     beta= 0.70
     Davidson diagonalization with overlap
     ethr =  4.31E-05,  avg # of iterations =  1.0

     total cpu time spent up to now is      199.2 secs

     total energy              =    -339.54291884 Ry
     estimated scf accuracy    <       0.00783437 Ry

     total magnetization       =     0.63 Bohr mag/cell
     absolute magnetization    =     0.68 Bohr mag/cell

     iteration # 10     ecut=    60.00 Ry     beta= 0.70
     Davidson diagonalization with overlap
     ethr =  4.31E-05,  avg # of iterations =  1.0

     total cpu time spent up to now is      200.3 secs

     total energy              =    -339.54173419 Ry
     estimated scf accuracy    <       0.00490314 Ry

     total magnetization       =     0.63 Bohr mag/cell
     absolute magnetization    =     0.69 Bohr mag/cell

     iteration # 11     ecut=    60.00 Ry     beta= 0.70
     Davidson diagonalization with overlap
     ethr =  2.72E-05,  avg # of iterations =  1.5

     total cpu time spent up to now is      201.5 secs

     total energy              =    -339.54217491 Ry
     estimated scf accuracy    <       0.00570366 Ry

     total magnetization       =     0.64 Bohr mag/cell
     absolute magnetization    =     0.70 Bohr mag/cell

     iteration # 12     ecut=    60.00 Ry     beta= 0.70
     Davidson diagonalization with overlap
     ethr =  2.72E-05,  avg # of iterations =  1.0

     total cpu time spent up to now is      202.6 secs

     total energy              =    -339.54230735 Ry
     estimated scf accuracy    <       0.00006437 Ry

     total magnetization       =     0.64 Bohr mag/cell
     absolute magnetization    =     0.69 Bohr mag/cell

     iteration # 13     ecut=    60.00 Ry     beta= 0.70
     Davidson diagonalization with overlap
     ethr =  3.58E-07,  avg # of iterations =  1.0

[...]
     absolute magnetization    =     0.62 Bohr mag/cell

     iteration #  3     ecut=    60.00 Ry     beta= 0.70
     Davidson diagonalization with overlap
     ethr =  1.50E-04,  avg # of iterations =  1.5

     total cpu time spent up to now is      332.5 secs

     total energy              =    -339.54331595 Ry
     estimated scf accuracy    <       0.00079044 Ry

     total magnetization       =     0.58 Bohr mag/cell
     absolute magnetization    =     0.61 Bohr mag/cell

     iteration #  4     ecut=    60.00 Ry     beta= 0.70
     Davidson diagonalization with overlap
     ethr =  4.39E-06,  avg # of iterations =  2.0

     total cpu time spent up to now is      333.7 secs

     total energy              =    -339.54346130 Ry
     estimated scf accuracy    <       0.00277913 Ry

     total magnetization       =     0.57 Bohr mag/cell
     absolute magnetization    =     0.62 Bohr mag/cell

     iteration #  5     ecut=    60.00 Ry     beta= 0.70
     Davidson diagonalization with overlap
     ethr =  4.39E-06,  avg # of iterations =  1.0

     total cpu time spent up to now is      334.8 secs

     total energy              =    -339.54331200 Ry
     estimated scf accuracy    <       0.00291728 Ry

     total magnetization       =     0.57 Bohr mag/cell
     absolute magnetization    =     0.62 Bohr mag/cell

     iteration #  6     ecut=    60.00 Ry     beta= 0.70
     Davidson diagonalization with overlap
     ethr =  4.39E-06,  avg # of iterations =  2.0

     total cpu time spent up to now is      336.0 secs

     total energy              =    -339.54343181 Ry
     estimated scf accuracy    <       0.00375620 Ry

     total magnetization       =     0.57 Bohr mag/cell
     absolute magnetization    =     0.62 Bohr mag/cell

     iteration #  7     ecut=    60.00 Ry     beta= 0.70
     Davidson diagonalization with overlap
     ethr =  4.39E-06,  avg # of iterations =  2.0

     total cpu time spent up to now is      337.3 secs

     total energy              =    -339.54343854 Ry
     estimated scf accuracy    <       0.01200587 Ry

     total magnetization       =     0.58 Bohr mag/cell
     absolute magnetization    =     0.65 Bohr mag/cell

     iteration #  8     ecut=    60.00 Ry     beta= 0.70
     Davidson diagonalization with overlap
     ethr =  4.39E-06,  avg # of iterations =  2.0

     total cpu time spent up to now is      338.5 secs

     total energy              =    -339.54338079 Ry
     estimated scf accuracy    <       0.00682362 Ry

     total magnetization       =     0.58 Bohr mag/cell
     absolute magnetization    =     0.64 Bohr mag/cell

     iteration #  9     ecut=    60.00 Ry     beta= 0.70
     Davidson diagonalization with overlap
     ethr =  4.39E-06,  avg # of iterations =  1.7

     total cpu time spent up to now is      339.6 secs

     total energy              =    -339.54342587 Ry
     estimated scf accuracy    <       0.00131512 Ry

     total magnetization       =     0.58 Bohr mag/cell
     absolute magnetization    =     0.62 Bohr mag/cell

     iteration # 10     ecut=    60.00 Ry     beta= 0.70
     Davidson diagonalization with overlap
     ethr =  4.39E-06,  avg # of iterations =  1.0

     total cpu time spent up to now is      340.7 secs

     total energy              =    -339.54339786 Ry
     estimated scf accuracy    <       0.00135837 Ry

     total magnetization       =     0.58 Bohr mag/cell
     absolute magnetization    =     0.62 Bohr mag/cell

     iteration # 11     ecut=    60.00 Ry     beta= 0.70
     Davidson diagonalization with overlap
     ethr =  4.39E-06,  avg # of iterations =  1.0

     total cpu time spent up to now is      341.7 secs

     total energy              =    -339.54340532 Ry
     estimated scf accuracy    <       0.00050599 Ry

     total magnetization       =     0.58 Bohr mag/cell
     absolute magnetization    =     0.62 Bohr mag/cell

     iteration # 12     ecut=    60.00 Ry     beta= 0.70
     Davidson diagonalization with overlap
     ethr =  2.81E-06,  avg # of iterations =  1.0

     total cpu time spent up to now is      342.7 secs

     total energy              =    -339.54340945 Ry
     estimated scf accuracy    <       0.00027066 Ry

     total magnetization       =     0.58 Bohr mag/cell
     absolute magnetization    =     0.63 Bohr mag/cell

     iteration # 13     ecut=    60.00 Ry     beta= 0.70
     Davidson diagonalization with overlap
     ethr =  1.50E-06,  avg # of iterations =  1.0

     total cpu time spent up to now is      343.8 secs

     total energy              =    -339.54341095 Ry
     estimated scf accuracy    <       0.00013735 Ry

     total magnetization       =     0.58 Bohr mag/cell
     absolute magnetization    =     0.63 Bohr mag/cell

     iteration # 14     ecut=    60.00 Ry     beta= 0.70
     Davidson diagonalization with overlap
     ethr =  7.63E-07,  avg # of iterations =  1.0

     total cpu time spent up to now is      344.8 secs

     total energy              =    -339.54341015 Ry
     estimated scf accuracy    <       0.00009165 Ry

     total magnetization       =     0.59 Bohr mag/cell
     absolute magnetization    =     0.63 Bohr mag/cell

     iteration # 15     ecut=    60.00 Ry     beta= 0.70
     Davidson diagonalization with overlap
     ethr =  5.09E-07,  avg # of iterations =  1.0

     total cpu time spent up to now is      345.8 secs

     total energy              =    -339.54341071 Ry
     estimated scf accuracy    <       0.00001046 Ry

     total magnetization       =     0.59 Bohr mag/cell
     absolute magnetization    =     0.63 Bohr mag/cell

     iteration # 16     ecut=    60.00 Ry     beta= 0.70
     Davidson diagonalization with overlap
     ethr =  5.81E-08,  avg # of iterations =  2.0

     total cpu time spent up to now is      347.1 secs

     total energy              =    -339.54341406 Ry
     estimated scf accuracy    <       0.00002580 Ry

     total magnetization       =     0.60 Bohr mag/cell
     absolute magnetization    =     0.64 Bohr mag/cell

     iteration # 17     ecut=    60.00 Ry     beta= 0.70
     Davidson diagonalization with overlap
     ethr =  5.81E-08,  avg # of iterations =  1.0

     total cpu time spent up to now is      348.1 secs

     total energy              =    -339.54341433 Ry
     estimated scf accuracy    <       0.00001197 Ry

     total magnetization       =     0.60 Bohr mag/cell
     absolute magnetization    =     0.65 Bohr mag/cell

     iteration # 18     ecut=    60.00 Ry     beta= 0.70
     Davidson diagonalization with overlap
     ethr =  5.81E-08,  avg # of iterations =  1.0

     total cpu time spent up to now is      349.1 secs

     total energy              =    -339.54341436 Ry
     estimated scf accuracy    <       0.00000700 Ry

     total magnetization       =     0.60 Bohr mag/cell
     absolute magnetization    =     0.65 Bohr mag/cell

     iteration # 19     ecut=    60.00 Ry     beta= 0.70
     Davidson diagonalization with overlap
     ethr =  3.89E-08,  avg # of iterations =  1.0

     total cpu time spent up to now is      350.2 secs

     total energy              =    -339.54341538 Ry
     estimated scf accuracy    <       0.00001705 Ry

     total magnetization       =     0.61 Bohr mag/cell
     absolute magnetization    =     0.65 Bohr mag/cell

     iteration # 20     ecut=    60.00 Ry     beta= 0.70
     Davidson diagonalization with overlap
     ethr =  3.89E-08,  avg # of iterations =  1.0

     total cpu time spent up to now is      351.2 secs

     total energy              =    -339.54341620 Ry
     estimated scf accuracy    <       0.00002886 Ry

     total magnetization       =     0.61 Bohr mag/cell
     absolute magnetization    =     0.66 Bohr mag/cell

     iteration # 21     ecut=    60.00 Ry     beta= 0.70
     Davidson diagonalization with overlap
     ethr =  3.89E-08,  avg # of iterations =  1.0

     total cpu time spent up to now is      352.2 secs

     total energy              =    -339.54341610 Ry
     estimated scf accuracy    <       0.00002545 Ry

     total magnetization       =     0.61 Bohr mag/cell
     absolute magnetization    =     0.66 Bohr mag/cell

     iteration # 22     ecut=    60.00 Ry     beta= 0.70
     Davidson diagonalization with overlap
     ethr =  3.89E-08,  avg # of iterations =  1.0

     total cpu time spent up to now is      353.2 secs

     total energy              =    -339.54341443 Ry
     estimated scf accuracy    <       0.00002847 Ry

     total magnetization       =     0.61 Bohr mag/cell
     absolute magnetization    =     0.66 Bohr mag/cell

     iteration # 23     ecut=    60.00 Ry     beta= 0.70
     Davidson diagonalization with overlap
     ethr =  3.89E-08,  avg # of iterations =  1.5

     total cpu time spent up to now is      354.5 secs

     total energy              =    -339.54341362 Ry
     estimated scf accuracy    <       0.00001941 Ry

     total magnetization       =     0.61 Bohr mag/cell
     absolute magnetization    =     0.65 Bohr mag/cell

     iteration # 24     ecut=    60.00 Ry     beta= 0.70
     Davidson diagonalization with overlap
     ethr =  3.89E-08,  avg # of iterations =  2.0

     total cpu time spent up to now is      355.7 secs

     total energy              =    -339.54341517 Ry
     estimated scf accuracy    <       0.00000240 Ry

     total magnetization       =     0.62 Bohr mag/cell
     absolute magnetization    =     0.66 Bohr mag/cell

     iteration # 25     ecut=    60.00 Ry     beta= 0.70
     Davidson diagonalization with overlap
     ethr =  1.33E-08,  avg # of iterations =  1.5

     total cpu time spent up to now is      356.9 secs

     total energy              =    -339.54341614 Ry
     estimated scf accuracy    <       0.00000057 Ry

     total magnetization       =     0.62 Bohr mag/cell
     absolute magnetization    =     0.67 Bohr mag/cell

     iteration # 26     ecut=    60.00 Ry     beta= 0.70
     Davidson diagonalization with overlap
     ethr =  3.15E-09,  avg # of iterations =  1.1

     total cpu time spent up to now is      357.9 secs

     total energy              =    -339.54341621 Ry
     estimated scf accuracy    <       0.00000008 Ry

     total magnetization       =     0.62 Bohr mag/cell
     absolute magnetization    =     0.67 Bohr mag/cell

     iteration # 27     ecut=    60.00 Ry     beta= 0.70
     Davidson diagonalization with overlap
     ethr =  4.66E-10,  avg # of iterations =  1.3

     total cpu time spent up to now is      359.0 secs

     total energy              =    -339.54341622 Ry
     estimated scf accuracy    <       0.00000001 Ry

     total magnetization       =     0.62 Bohr mag/cell
     absolute magnetization    =     0.67 Bohr mag/cell

     iteration # 28     ecut=    60.00 Ry     beta= 0.70
     Davidson diagonalization with overlap
     ethr =  6.04E-11,  avg # of iterations =  1.5

     total cpu time spent up to now is      360.2 secs

     total energy              =    -339.54341622 Ry
     estimated scf accuracy    <       0.00000004 Ry

     total magnetization       =     0.62 Bohr mag/cell
     absolute magnetization    =     0.67 Bohr mag/cell

     iteration # 29     ecut=    60.00 Ry     beta= 0.70
     Davidson diagonalization with overlap
     ethr =  6.04E-11,  avg # of iterations =  1.0

     total cpu time spent up to now is      361.3 secs

     total energy              =    -339.54341622 Ry
     estimated scf accuracy    <       0.00000004 Ry

     total magnetization       =     0.62 Bohr mag/cell
     absolute magnetization    =     0.67 Bohr mag/cell

     iteration # 30     ecut=    60.00 Ry     beta= 0.70
     Davidson diagonalization with overlap
     ethr =  6.04E-11,  avg # of iterations =  1.0

     total cpu time spent up to now is      362.3 secs

     total energy              =    -339.54341622 Ry
     estimated scf accuracy    <       0.00000002 Ry

     total magnetization       =     0.62 Bohr mag/cell
     absolute magnetization    =     0.67 Bohr mag/cell

     iteration # 31     ecut=    60.00 Ry     beta= 0.70
     Davidson diagonalization with overlap
     ethr =  6.04E-11,  avg # of iterations =  1.0

     total cpu time spent up to now is      363.3 secs

     total energy              =    -339.54341622 Ry
     estimated scf accuracy    <       0.00000001 Ry

     total magnetization       =     0.62 Bohr mag/cell
     absolute magnetization    =     0.67 Bohr mag/cell

     iteration # 32     ecut=    60.00 Ry     beta= 0.70
     Davidson diagonalization with overlap
     ethr =  6.04E-11,  avg # of iterations =  1.0

     total cpu time spent up to now is      364.3 secs

     total energy              =    -339.54341622 Ry
     estimated scf accuracy    <       0.00000002 Ry

     total magnetization       =     0.62 Bohr mag/cell
     absolute magnetization    =     0.67 Bohr mag/cell

     iteration # 33     ecut=    60.00 Ry     beta= 0.70
     Davidson diagonalization with overlap
     ethr =  6.04E-11,  avg # of iterations =  1.5

     total cpu time spent up to now is      365.5 secs

     total energy              =    -339.54341622 Ry
     estimated scf accuracy    <          9.2E-09 Ry

     total magnetization       =     0.62 Bohr mag/cell
     absolute magnetization    =     0.67 Bohr mag/cell

     iteration # 34     ecut=    60.00 Ry     beta= 0.70
     Davidson diagonalization with overlap
     ethr =  5.08E-11,  avg # of iterations =  1.0

     total cpu time spent up to now is      366.5 secs

     total energy              =    -339.54341622 Ry
     estimated scf accuracy    <          9.8E-09 Ry

     total magnetization       =     0.62 Bohr mag/cell
     absolute magnetization    =     0.67 Bohr mag/cell

     iteration # 35     ecut=    60.00 Ry     beta= 0.70
     Davidson diagonalization with overlap
     ethr =  5.08E-11,  avg # of iterations =  1.0

     total cpu time spent up to now is      367.5 secs

     total energy              =    -339.54341622 Ry
     estimated scf accuracy    <          6.2E-09 Ry

     total magnetization       =     0.62 Bohr mag/cell
     absolute magnetization    =     0.67 Bohr mag/cell

     iteration # 36     ecut=    60.00 Ry     beta= 0.70
     Davidson diagonalization with overlap
     ethr =  3.47E-11,  avg # of iterations =  1.0

     total cpu time spent up to now is      368.6 secs

     total energy              =    -339.54341622 Ry
     estimated scf accuracy    <          3.5E-09 Ry

     total magnetization       =     0.62 Bohr mag/cell
     absolute magnetization    =     0.67 Bohr mag/cell

     iteration # 37     ecut=    60.00 Ry     beta= 0.70
     Davidson diagonalization with overlap
     ethr =  1.92E-11,  avg # of iterations =  1.0

     Magnetic moment per site  (integrated on atomic sphere of radius R)
     atom   1 (R=0.413)  charge= 15.9318  magn=  0.6402

     total cpu time spent up to now is      369.6 secs

     End of self-consistent calculation

     Number of k-points >= 100: set verbosity='high' to print the bands.

     the Fermi energy is    15.9711 ev

!    total energy              =    -339.54341622 Ry
     estimated scf accuracy    <          3.7E-10 Ry
     smearing contrib. (-TS)   =       0.00013987 Ry
     internal energy E=F+TS    =    -339.54355609 Ry

     The total energy is F=E-TS. E is the sum of the following terms:
     one-electron contribution =    -205.46526765 Ry
     hartree contribution      =     112.93853185 Ry
     xc contribution           =     -34.33965759 Ry
     ewald contribution        =    -212.67716271 Ry

     total magnetization       =     0.62 Bohr mag/cell
     absolute magnetization    =     0.67 Bohr mag/cell

     convergence has been achieved in  37 iterations

     Forces acting on atoms (cartesian axes, Ry/au):

     atom    1 type  1   force =     0.00000000    0.00000000    0.00000000

     Total force =     0.000000     Total SCF correction =     0.000021


     Computing stress (Cartesian axis) and pressure

          total   stress  (Ry/bohr**3)                   (kbar)     P=       77.65
   0.00076458  -0.00000004  -0.00000002          112.47       -0.01       -0.00
  -0.00000004   0.00076458  -0.00000001           -0.01      112.47       -0.00
  -0.00000002  -0.00000001   0.00005430           -0.00       -0.00        7.99


     Writing all to output data dir ./out/pwscf.save/

     init_run     :      0.85s CPU      1.05s WALL (       2 calls)
     electrons    :    301.90s CPU    364.88s WALL (       8 calls)
     update_pot   :      0.39s CPU      0.41s WALL (       6 calls)
     forces       :      0.78s CPU      1.02s WALL (       8 calls)
     stress       :      1.94s CPU      2.05s WALL (       8 calls)

     Called by init_run:
     wfcinit      :      0.63s CPU      0.78s WALL (       2 calls)
     potinit      :      0.04s CPU      0.04s WALL (       2 calls)
     hinit0       :      0.17s CPU      0.21s WALL (       2 calls)

     Called by electrons:
     c_bands      :    258.54s CPU    312.40s WALL (     287 calls)
     sum_band     :     40.68s CPU     49.48s WALL (     287 calls)
     v_of_rho     :      1.64s CPU      1.72s WALL (     295 calls)
     newd         :      0.75s CPU      0.80s WALL (     295 calls)
     mix_rho      :      0.18s CPU      0.31s WALL (     287 calls)

     Called by c_bands:
     init_us_2    :      3.28s CPU      3.98s WALL (  208384 calls)
     init_us_2:cp :      3.03s CPU      3.72s WALL (  208384 calls)
     cegterg      :    248.98s CPU    299.71s WALL (  101024 calls)

     Called by *egterg:
     cdiaghg      :     35.95s CPU     42.43s WALL (  271351 calls)
     h_psi        :    166.86s CPU    201.85s WALL (  274167 calls)
     s_psi        :      7.50s CPU      9.05s WALL (  274167 calls)
     g_psi        :      0.43s CPU      0.52s WALL (  172439 calls)

     Called by h_psi:
     h_psi:calbec :      9.57s CPU     11.58s WALL (  274167 calls)
     vloc_psi     :    150.44s CPU    182.02s WALL (  274167 calls)
     add_vuspsi   :      5.75s CPU      6.97s WALL (  274167 calls)

     General routines
     calbec       :     13.57s CPU     16.64s WALL (  389271 calls)
     fft          :      0.61s CPU      0.69s WALL (    7685 calls)
     ffts         :      0.04s CPU      0.05s WALL (    1164 calls)
     fftw         :    171.86s CPU    208.34s WALL ( 7307420 calls)
     interpolate  :      0.07s CPU      0.08s WALL (     590 calls)

     Parallel routines

     PWSCF        :   5m 6.65s CPU   6m10.88s WALL


   This run was terminated on:  16:31:42  18Jun2023            

=------------------------------------------------------------------------------=
   JOB DONE.
=------------------------------------------------------------------------------=
Note: The following floating-point exceptions are signalling: IEEE_DENORMAL
Note: The following floating-point exceptions are signalling: IEEE_DENORMAL
Note: The following floating-point exceptions are signalling: IEEE_DENORMAL
Note: The following floating-point exceptions are signalling: IEEE_DENORMAL
Note: The following floating-point exceptions are signalling: IEEE_DENORMAL
Note: The following floating-point exceptions are signalling: IEEE_DENORMAL
Note: The following floating-point exceptions are signalling: IEEE_DENORMAL
Note: The following floating-point exceptions are signalling: IEEE_DENORMAL
Note: The following floating-point exceptions are signalling: IEEE_DENORMAL
Note: The following floating-point exceptions are signalling: IEEE_DENORMAL
Note: The following floating-point exceptions are signalling: IEEE_DENORMAL
Note: The following floating-point exceptions are signalling: IEEE_DENORMAL
Note: The following floating-point exceptions are signalling: IEEE_DENORMAL
Note: The following floating-point exceptions are signalling: IEEE_DENORMAL
Note: The following floating-point exceptions are signalling: IEEE_DENORMAL
Note: The following floating-point exceptions are signalling: IEEE_DENORMAL
