Ignoring PCI device with non-16bit domain.
Pass --enable-32bits-pci-domain to configure to support such devices
(warning: it would break the library ABI, don't enable unless really needed).

     Program PWSCF v.7.1 starts on 18Jun2023 at 11:37:23 

     This program is part of the open-source Quantum ESPRESSO suite
     for quantum simulation of materials; please cite
         "P. Giannozzi et al., J. Phys.:Condens. Matter 21 395502 (2009);
         "P. Giannozzi et al., J. Phys.:Condens. Matter 29 465901 (2017);
         "P. Giannozzi et al., J. Chem. Phys. 152 154105 (2020);
          URL http://www.quantum-espresso.org", 
     in publications or presentations arising from this work. More details at
     http://www.quantum-espresso.org/quote

     Parallel version (MPI), running on    24 processors

     MPI processes distributed on     1 nodes
     9708 MiB available memory on the printing compute node when the environment starts

     Reading input from Ni_orthorhombic_baco_atoms.in
Warning: card &CELL ignored
Warning: card   CELL_DOFREE  =  "ALL", ignored
Warning: card   CELL_DYNAMICS  =  "BFGS", ignored
Warning: card / ignored

     Current dimensions of program PWSCF are:
     Max number of different atomic species (ntypx) = 10
     Max number of k-points (npk) =  40000
     Max angular momentum in pseudopotentials (lmaxx) =  4

     K-points division:     npool     =       2
     R & G space division:  proc/nbgrp/npool/nimage =      12
     Subspace diagonalization in iterative solution of the eigenvalue problem:
     a serial algorithm will be used


     Parallelization info
     --------------------
     sticks:   dense  smooth     PW     G-vecs:    dense   smooth      PW
     Min          11      11      3                  151      151      31
     Max          12      12      4                  153      153      38
     Sum         133     133     43                 1821     1821     415

     Using Slab Decomposition



     bravais-lattice index     =            0
     lattice parameter (alat)  =       2.2434  a.u.
     unit-cell volume          =      18.4852 (a.u.)^3
     number of atoms/cell      =            1
     number of atomic types    =            1
     number of electrons       =        18.00
     number of Kohn-Sham states=           13
     kinetic-energy cutoff     =      80.0000  Ry
     charge density cutoff     =     320.0000  Ry
     scf convergence threshold =      1.0E-09
     mixing beta               =       0.7000
     number of iterations used =            8  TF        mixing
     Exchange-correlation= PBE
                           (   1   4   3   4   0   0   0)

     celldm(1)=   2.243407  celldm(2)=   0.000000  celldm(3)=   0.000000
     celldm(4)=   0.000000  celldm(5)=   0.000000  celldm(6)=   0.000000

     crystal axes: (cart. coord. in units of alat)
               a(1) = (   1.000000   0.000000   0.000000 )  
               a(2) = (  -0.180330   0.983606   0.000000 )  
               a(3) = (   0.000000   0.000000   1.664477 )  

     reciprocal axes: (cart. coord. in units 2 pi/alat)
               b(1) = (  1.000000  0.183336 -0.000000 )  
               b(2) = (  0.000000  1.016667  0.000000 )  
               b(3) = (  0.000000 -0.000000  0.600789 )  


     PseudoPot. # 1 for Ni read from file:
     /home/jmgoff/work/automation/qe_pseudos/Ni.upf
     MD5 check sum: 2b0a79d100e227970886d6963e34175b
     Pseudo is Norm-conserving + core correction, Zval = 18.0
     Generated using ONCVPSP code by D. R. Hamann
     Using radial grid of 1372 points,  6 beta functions with: 
                l(1) =   0
                l(2) =   0
                l(3) =   1
                l(4) =   1
                l(5) =   2
                l(6) =   2

     atomic species   valence    mass     pseudopotential
        Ni            18.00    58.69340     Ni( 1.00)

     Starting magnetic structure 
     atomic species   magnetization
        Ni           0.700

     No symmetry found



   Cartesian axes

     site n.     atom                  positions (alat units)
         1           Ni  tau(   1) = (   0.0000000   0.0000000   0.0000000  )

     number of k points=   424  Marzari-Vanderbilt smearing, width (Ry)=  0.0100

     Number of k-points >= 100: set verbosity='high' to print them.

     Dense  grid:     1821 G-vectors     FFT dimensions: (  15,  15,  24)

     Estimated max dynamical RAM per process >       3.17 MB

     Estimated total dynamical RAM >      75.07 MB
     Generating pointlists ...
     new r_m :   0.4125 (alat units)  0.9254 (a.u.) for type    1

     Initial potential from superposition of free atoms

     starting charge      17.9998, renormalised to      18.0000
     Starting wfcs are   10 randomized atomic wfcs +    3 random wfcs

     total cpu time spent up to now is        0.4 secs

     Self-consistent Calculation

     iteration #  1     ecut=    80.00 Ry     beta= 0.70
     Davidson diagonalization with overlap
     ethr =  1.00E-02,  avg # of iterations =  5.7

     total cpu time spent up to now is        2.2 secs

     total energy              =    -328.36978041 Ry
     estimated scf accuracy    <       5.73286816 Ry

     total magnetization       =     1.12 Bohr mag/cell
     absolute magnetization    =     1.13 Bohr mag/cell

     iteration #  2     ecut=    80.00 Ry     beta= 0.70
     Davidson diagonalization with overlap
     ethr =  1.00E-02,  avg # of iterations =  1.0

     total cpu time spent up to now is        3.1 secs

     total energy              =    -328.76878043 Ry
     estimated scf accuracy    <       0.81135578 Ry

     total magnetization       =     0.46 Bohr mag/cell
     absolute magnetization    =     0.46 Bohr mag/cell

     iteration #  3     ecut=    80.00 Ry     beta= 0.70
     Davidson diagonalization with overlap
     ethr =  4.51E-03,  avg # of iterations =  1.0

     total cpu time spent up to now is        3.9 secs

     total energy              =    -328.82844707 Ry
     estimated scf accuracy    <       0.00847026 Ry

     total magnetization       =     0.04 Bohr mag/cell
     absolute magnetization    =     0.05 Bohr mag/cell

     iteration #  4     ecut=    80.00 Ry     beta= 0.70
     Davidson diagonalization with overlap
     ethr =  4.71E-05,  avg # of iterations =  2.3

     total cpu time spent up to now is        5.0 secs

     total energy              =    -328.82909427 Ry
     estimated scf accuracy    <       0.00104874 Ry

     total magnetization       =     0.01 Bohr mag/cell
     absolute magnetization    =     0.01 Bohr mag/cell

     iteration #  5     ecut=    80.00 Ry     beta= 0.70
     Davidson diagonalization with overlap
     ethr =  5.83E-06,  avg # of iterations =  1.7

     total cpu time spent up to now is        5.9 secs

     total energy              =    -328.82914808 Ry
     estimated scf accuracy    <       0.00012274 Ry

     total magnetization       =     0.00 Bohr mag/cell
     absolute magnetization    =     0.00 Bohr mag/cell

     iteration #  6     ecut=    80.00 Ry     beta= 0.70
     Davidson diagonalization with overlap
     ethr =  6.82E-07,  avg # of iterations =  1.5

     total cpu time spent up to now is        6.8 secs

     total energy              =    -328.82916894 Ry
     estimated scf accuracy    <       0.00000167 Ry

     total magnetization       =    -0.00 Bohr mag/cell
     absolute magnetization    =     0.00 Bohr mag/cell

     iteration #  7     ecut=    80.00 Ry     beta= 0.70
     Davidson diagonalization with overlap
     ethr =  9.29E-09,  avg # of iterations =  2.1

     total cpu time spent up to now is        7.9 secs

     total energy              =    -328.82916936 Ry
     estimated scf accuracy    <       0.00000011 Ry

     total magnetization       =    -0.00 Bohr mag/cell
     absolute magnetization    =     0.00 Bohr mag/cell

     iteration #  8     ecut=    80.00 Ry     beta= 0.70
     Davidson diagonalization with overlap
     ethr =  6.25E-10,  avg # of iterations =  1.9

     total cpu time spent up to now is        8.8 secs

     total energy              =    -328.82916938 Ry
     estimated scf accuracy    <          2.9E-09 Ry

     total magnetization       =    -0.00 Bohr mag/cell
     absolute magnetization    =     0.00 Bohr mag/cell

     iteration #  9     ecut=    80.00 Ry     beta= 0.70
     Davidson diagonalization with overlap
     ethr =  1.60E-11,  avg # of iterations =  1.9

     Magnetic moment per site  (integrated on atomic sphere of radius R)
     atom   1 (R=0.412)  charge= 12.4863  magn= -0.0000

     total cpu time spent up to now is        9.8 secs

     End of self-consistent calculation

     Number of k-points >= 100: set verbosity='high' to print the bands.

     the Fermi energy is    86.5339 ev

!    total energy              =    -328.82916938 Ry
     estimated scf accuracy    <          2.5E-10 Ry
     smearing contrib. (-TS)   =       0.00001145 Ry
     internal energy E=F+TS    =    -328.82918083 Ry

     The total energy is F=E-TS. E is the sum of the following terms:
     one-electron contribution =     -38.88627958 Ry
     hartree contribution      =      69.94741383 Ry
     xc contribution           =     -47.22352335 Ry
     ewald contribution        =    -312.66679173 Ry

     total magnetization       =    -0.00 Bohr mag/cell
     absolute magnetization    =     0.00 Bohr mag/cell

     convergence has been achieved in   9 iterations

     Forces acting on atoms (cartesian axes, Ry/au):

     atom    1 type  1   force =     0.00000000    0.00000000    0.00000000

     Total force =     0.000000     Total SCF correction =     0.000000


     Computing stress (Cartesian axis) and pressure

          total   stress  (Ry/bohr**3)                   (kbar)     P=   101450.75
   0.99117756  -0.08747541  -0.00000000       145807.25   -12868.08       -0.00
  -0.08747541   0.95910280   0.00000000       -12868.08   141088.89        0.00
  -0.00000000   0.00000000   0.11866424           -0.00        0.00    17456.11


     Writing all to output data dir ./out/pwscf.save/

     init_run     :      0.25s CPU      0.32s WALL (       1 calls)
     electrons    :      7.06s CPU      9.39s WALL (       1 calls)
     forces       :      0.05s CPU      0.08s WALL (       1 calls)
     stress       :      0.09s CPU      0.10s WALL (       1 calls)

     Called by init_run:
     wfcinit      :      0.22s CPU      0.29s WALL (       1 calls)
     potinit      :      0.00s CPU      0.00s WALL (       1 calls)
     hinit0       :      0.02s CPU      0.02s WALL (       1 calls)

     Called by electrons:
     c_bands      :      6.29s CPU      8.39s WALL (       9 calls)
     sum_band     :      0.76s CPU      0.98s WALL (       9 calls)
     v_of_rho     :      0.01s CPU      0.01s WALL (      10 calls)
     mix_rho      :      0.00s CPU      0.00s WALL (       9 calls)

     Called by c_bands:
     init_us_2    :      0.07s CPU      0.08s WALL (    8904 calls)
     init_us_2:cp :      0.06s CPU      0.07s WALL (    8904 calls)
     cegterg      :      6.01s CPU      7.98s WALL (    3816 calls)

     Called by *egterg:
     cdiaghg      :      1.49s CPU      1.89s WALL (   12081 calls)
     h_psi        :      3.76s CPU      5.05s WALL (   12505 calls)
     g_psi        :      0.01s CPU      0.01s WALL (    8265 calls)

     Called by h_psi:
     h_psi:calbec :      0.30s CPU      0.41s WALL (   12505 calls)
     vloc_psi     :      3.29s CPU      4.42s WALL (   12505 calls)
     add_vuspsi   :      0.13s CPU      0.18s WALL (   12505 calls)

     General routines
     calbec       :      0.34s CPU      0.46s WALL (   14625 calls)
     fft          :      0.00s CPU      0.01s WALL (     230 calls)
     ffts         :      0.00s CPU      0.00s WALL (      18 calls)
     fftw         :      3.75s CPU      5.01s WALL (  289914 calls)

     Parallel routines

     PWSCF        :      7.86s CPU     11.03s WALL


   This run was terminated on:  11:37:34  18Jun2023            

=------------------------------------------------------------------------------=
   JOB DONE.
=------------------------------------------------------------------------------=
