Ignoring PCI device with non-16bit domain.
Pass --enable-32bits-pci-domain to configure to support such devices
(warning: it would break the library ABI, don't enable unless really needed).

     Program PWSCF v.7.1 starts on 23Jun2023 at 14:20:17 

     This program is part of the open-source Quantum ESPRESSO suite
     for quantum simulation of materials; please cite
         "P. Giannozzi et al., J. Phys.:Condens. Matter 21 395502 (2009);
         "P. Giannozzi et al., J. Phys.:Condens. Matter 29 465901 (2017);
         "P. Giannozzi et al., J. Chem. Phys. 152 154105 (2020);
          URL http://www.quantum-espresso.org", 
     in publications or presentations arising from this work. More details at
     http://www.quantum-espresso.org/quote

     Parallel version (MPI), running on    24 processors

     MPI processes distributed on     1 nodes
     12303 MiB available memory on the printing compute node when the environment starts

     Reading input from Ni_orthorhombic_baco_atoms.in

     Current dimensions of program PWSCF are:
     Max number of different atomic species (ntypx) = 10
     Max number of k-points (npk) =  40000
     Max angular momentum in pseudopotentials (lmaxx) =  4
     Found identity + (  0.0000  0.0000  0.5000) symmetry
     This is a supercell, fractional translations are disabled

     R & G space division:  proc/nbgrp/npool/nimage =      24
     Subspace diagonalization in iterative solution of the eigenvalue problem:
     a serial algorithm will be used


     Parallelization info
     --------------------
     sticks:   dense  smooth     PW     G-vecs:    dense   smooth      PW
     Min          27      13      4                 1807      633     116
     Max          28      14      5                 1822      646     129
     Sum         665     335    107                43557    15415    2901

     Using Slab Decomposition



     bravais-lattice index     =            0
     lattice parameter (alat)  =       4.2143  a.u.
     unit-cell volume          =     245.0846 (a.u.)^3
     number of atoms/cell      =            2
     number of atomic types    =            1
     number of electrons       =        36.00
     number of Kohn-Sham states=           22
     kinetic-energy cutoff     =      60.0000  Ry
     charge density cutoff     =     480.0000  Ry
     scf convergence threshold =      1.0E-06
     mixing beta               =       0.7000
     number of iterations used =            8  TF        mixing
     energy convergence thresh.=      1.0E-05
     force convergence thresh. =      1.0E-04
     press convergence thresh. =      5.0E-01
     Exchange-correlation= PBE
                           (   1   4   3   4   0   0   0)
     nstep                     =           50


     celldm(1)=   4.214335  celldm(2)=   0.000000  celldm(3)=   0.000000
     celldm(4)=   0.000000  celldm(5)=   0.000000  celldm(6)=   0.000000

     crystal axes: (cart. coord. in units of alat)
               a(1) = (   1.000000   0.000000   0.000000 )  
               a(2) = (  -0.180330   0.983606   0.000000 )  
               a(3) = (   0.000000   0.000000   3.328954 )  

     reciprocal axes: (cart. coord. in units 2 pi/alat)
               b(1) = (  1.000000  0.183336 -0.000000 )  
               b(2) = (  0.000000  1.016667  0.000000 )  
               b(3) = (  0.000000 -0.000000  0.300395 )  


     PseudoPot. # 1 for Ni read from file:
     /home/jmgoff/work/automation/qe_pseudos/Ni.upf
     MD5 check sum: caf20d35bef94d268ef04de15446df97
     Pseudo is Ultrasoft + core correction, Zval = 18.0
     Generated using 'atomic' code by A. Dal Corso  v.7.1
     Using radial grid of 1195 points,  6 beta functions with: 
                l(1) =   0
                l(2) =   0
                l(3) =   1
                l(4) =   1
                l(5) =   2
                l(6) =   2
     Q(r) pseudized with 0 coefficients 


     atomic species   valence    mass     pseudopotential
        Ni            18.00    58.69340     Ni( 1.00)

     Starting magnetic structure 
     atomic species   magnetization
        Ni           1.000

     No symmetry found



   Cartesian axes

     site n.     atom                  positions (alat units)
         1           Ni  tau(   1) = (   0.0000000   0.0000000   0.0000000  )
         2           Ni  tau(   2) = (   0.0000000   0.0000000   1.6644770  )

     number of k points=   152  Marzari-Vanderbilt smearing, width (Ry)=  0.0100

     Number of k-points >= 100: set verbosity='high' to print them.

     Dense  grid:    43557 G-vectors     FFT dimensions: (  30,  30, 100)

     Smooth grid:    15415 G-vectors     FFT dimensions: (  24,  24,  72)

     Estimated max dynamical RAM per process >      19.12 MB

     Estimated total dynamical RAM >     458.79 MB

     Check: negative core charge=   -0.000001
     Generating pointlists ...
     new r_m :   0.4125 (alat units)  1.7384 (a.u.) for type    1

     Initial potential from superposition of free atoms

     starting charge      35.9995, renormalised to      36.0000
     Starting wfcs are   20 randomized atomic wfcs +    2 random wfcs

     total cpu time spent up to now is        1.2 secs

     Self-consistent Calculation

     iteration #  1     ecut=    60.00 Ry     beta= 0.70
     Davidson diagonalization with overlap
     ethr =  1.00E-02,  avg # of iterations =  6.3

     negative rho (up, down):  2.820E-04 2.389E-05

     total cpu time spent up to now is        6.4 secs

     total energy              =    -672.67682523 Ry
     estimated scf accuracy    <      18.63763202 Ry

     total magnetization       =     8.00 Bohr mag/cell
     absolute magnetization    =    10.61 Bohr mag/cell

     iteration #  2     ecut=    60.00 Ry     beta= 0.70
     Davidson diagonalization with overlap
     ethr =  1.00E-02,  avg # of iterations =  3.4

     total cpu time spent up to now is       10.7 secs

     total energy              =    -676.96300078 Ry
     estimated scf accuracy    <      17.06628755 Ry

     total magnetization       =     0.80 Bohr mag/cell
     absolute magnetization    =     1.57 Bohr mag/cell

     iteration #  3     ecut=    60.00 Ry     beta= 0.70
     Davidson diagonalization with overlap
     ethr =  1.00E-02,  avg # of iterations =  2.0

     negative rho (up, down):  7.117E-04 2.144E-02

     total cpu time spent up to now is       14.1 secs

     total energy              =    -679.44766748 Ry
     estimated scf accuracy    <       2.78825836 Ry

     total magnetization       =     2.70 Bohr mag/cell
     absolute magnetization    =     4.11 Bohr mag/cell

     iteration #  4     ecut=    60.00 Ry     beta= 0.70
     Davidson diagonalization with overlap
     ethr =  7.75E-03,  avg # of iterations =  3.5

     negative rho (up, down):  7.252E-05 2.376E-05

     total cpu time spent up to now is       18.2 secs

     total energy              =    -664.41565076 Ry
     estimated scf accuracy    <     831.93843239 Ry

     total magnetization       =     1.60 Bohr mag/cell
     absolute magnetization    =    54.11 Bohr mag/cell

     iteration #  5     ecut=    60.00 Ry     beta= 0.70
     Davidson diagonalization with overlap
     ethr =  7.75E-03,  avg # of iterations =  3.0

     total cpu time spent up to now is       22.3 secs

     total energy              =    -679.07987392 Ry
     estimated scf accuracy    <      36.50287482 Ry

     total magnetization       =     1.99 Bohr mag/cell
     absolute magnetization    =    10.77 Bohr mag/cell

     iteration #  6     ecut=    60.00 Ry     beta= 0.70
     Davidson diagonalization with overlap
     ethr =  7.75E-03,  avg # of iterations =  1.4

     total cpu time spent up to now is       25.0 secs

     total energy              =    -678.96315159 Ry
     estimated scf accuracy    <      20.74844228 Ry

     total magnetization       =     1.84 Bohr mag/cell
     absolute magnetization    =     8.78 Bohr mag/cell

     iteration #  7     ecut=    60.00 Ry     beta= 0.70
     Davidson diagonalization with overlap
     ethr =  7.75E-03,  avg # of iterations =  1.5

     total cpu time spent up to now is       27.8 secs

     total energy              =    -679.03281069 Ry
     estimated scf accuracy    <       8.17862555 Ry

     total magnetization       =     1.85 Bohr mag/cell
     absolute magnetization    =     5.46 Bohr mag/cell

     iteration #  8     ecut=    60.00 Ry     beta= 0.70
     Davidson diagonalization with overlap
     ethr =  7.75E-03,  avg # of iterations =  2.0

     total cpu time spent up to now is       31.1 secs

     total energy              =    -678.66341623 Ry
     estimated scf accuracy    <      72.20026558 Ry

     total magnetization       =     1.78 Bohr mag/cell
     absolute magnetization    =    17.01 Bohr mag/cell

     iteration #  9     ecut=    60.00 Ry     beta= 0.70
     Davidson diagonalization with overlap
     ethr =  7.75E-03,  avg # of iterations =  2.0

     total cpu time spent up to now is       34.3 secs

     total energy              =    -678.90281662 Ry
     estimated scf accuracy    <      15.83569484 Ry

     total magnetization       =     1.96 Bohr mag/cell
     absolute magnetization    =     7.92 Bohr mag/cell

     iteration # 10     ecut=    60.00 Ry     beta= 0.70
     Davidson diagonalization with overlap
     ethr =  7.75E-03,  avg # of iterations =  2.0

     total cpu time spent up to now is       37.5 secs

     total energy              =    -679.42927431 Ry
     estimated scf accuracy    <      27.97198101 Ry

     total magnetization       =     1.80 Bohr mag/cell
     absolute magnetization    =    10.64 Bohr mag/cell

     iteration # 11     ecut=    60.00 Ry     beta= 0.70
     Davidson diagonalization with overlap
     ethr =  7.75E-03,  avg # of iterations =  1.0

     total cpu time spent up to now is       40.0 secs

     total energy              =    -679.18937405 Ry
     estimated scf accuracy    <      30.58585512 Ry

     total magnetization       =     1.74 Bohr mag/cell
     absolute magnetization    =    11.42 Bohr mag/cell

     iteration # 12     ecut=    60.00 Ry     beta= 0.70
     Davidson diagonalization with overlap
     ethr =  7.75E-03,  avg # of iterations =  1.6

     total cpu time spent up to now is       43.0 secs

     total energy              =    -678.75709687 Ry
     estimated scf accuracy    <      27.16781472 Ry

     total magnetization       =     1.42 Bohr mag/cell
     absolute magnetization    =     8.91 Bohr mag/cell

     iteration # 13     ecut=    60.00 Ry     beta= 0.70
     Davidson diagonalization with overlap
     ethr =  7.75E-03,  avg # of iterations =  2.0

     total cpu time spent up to now is       46.3 secs

     total energy              =    -678.76910436 Ry
     estimated scf accuracy    <      32.98902950 Ry

     total magnetization       =     1.76 Bohr mag/cell
     absolute magnetization    =    10.37 Bohr mag/cell

     iteration # 14     ecut=    60.00 Ry     beta= 0.70
     Davidson diagonalization with overlap
     ethr =  7.75E-03,  avg # of iterations =  2.0

     negative rho (up, down):  1.534E-03 7.152E-02

     total cpu time spent up to now is       49.6 secs

     total energy              =    -680.36185434 Ry
     estimated scf accuracy    <      29.86421717 Ry

     total magnetization       =     1.76 Bohr mag/cell
     absolute magnetization    =    10.52 Bohr mag/cell

     iteration # 15     ecut=    60.00 Ry     beta= 0.70
     Davidson diagonalization with overlap
     ethr =  7.75E-03,  avg # of iterations =  3.0

     negative rho (up, down):  1.129E-03 4.557E-05

     total cpu time spent up to now is       53.6 secs

     total energy              =    -663.36295045 Ry
     estimated scf accuracy    <     843.17095230 Ry

     total magnetization       =     1.02 Bohr mag/cell
     absolute magnetization    =    56.91 Bohr mag/cell

     iteration # 16     ecut=    60.00 Ry     beta= 0.70
     Davidson diagonalization with overlap
     ethr =  7.75E-03,  avg # of iterations =  3.0

     total cpu time spent up to now is       57.8 secs

     total energy              =    -679.31539784 Ry
     estimated scf accuracy    <      28.25315917 Ry

     total magnetization       =     1.71 Bohr mag/cell
     absolute magnetization    =    10.48 Bohr mag/cell

     iteration # 17     ecut=    60.00 Ry     beta= 0.70
     Davidson diagonalization with overlap
     ethr =  7.75E-03,  avg # of iterations =  1.6

     total cpu time spent up to now is       60.6 secs

     total energy              =    -680.05156631 Ry
     estimated scf accuracy    <      34.69671372 Ry

     total magnetization       =     1.57 Bohr mag/cell
     absolute magnetization    =    11.50 Bohr mag/cell

     iteration # 18     ecut=    60.00 Ry     beta= 0.70
     Davidson diagonalization with overlap
     ethr =  7.75E-03,  avg # of iterations =  2.0

     negative rho (up, down):  1.113E-04 1.482E-03

     total cpu time spent up to now is       63.9 secs

     total energy              =    -680.56332813 Ry
     estimated scf accuracy    <     131.16939416 Ry

     total magnetization       =     0.99 Bohr mag/cell
     absolute magnetization    =    23.16 Bohr mag/cell

     iteration # 19     ecut=    60.00 Ry     beta= 0.70
     Davidson diagonalization with overlap
     ethr =  7.75E-03,  avg # of iterations =  3.0

     negative rho (up, down):  5.952E-05 7.373E-04

     total cpu time spent up to now is       67.8 secs

     total energy              =    -673.30578317 Ry
     estimated scf accuracy    <     458.18727210 Ry

     total magnetization       =     1.33 Bohr mag/cell
     absolute magnetization    =    39.94 Bohr mag/cell

     iteration # 20     ecut=    60.00 Ry     beta= 0.70
     Davidson diagonalization with overlap
     ethr =  7.75E-03,  avg # of iterations =  2.6

     negative rho (up, down):  7.765E-04 2.118E-03

     total cpu time spent up to now is       71.6 secs

     total energy              =    -680.53241549 Ry
     estimated scf accuracy    <      48.18236935 Ry

     total magnetization       =     1.57 Bohr mag/cell
     absolute magnetization    =    13.04 Bohr mag/cell

     iteration # 21     ecut=    60.00 Ry     beta= 0.70
     Davidson diagonalization with overlap
     ethr =  7.75E-03,  avg # of iterations =  3.0

     negative rho (up, down):  5.383E-05 5.070E-06

     total cpu time spent up to now is       75.5 secs

     total energy              =    -670.92114799 Ry
     estimated scf accuracy    <     572.22289281 Ry

     total magnetization       =     1.33 Bohr mag/cell
     absolute magnetization    =    48.56 Bohr mag/cell

     iteration # 22     ecut=    60.00 Ry     beta= 0.70
     Davidson diagonalization with overlap
     ethr =  7.75E-03,  avg # of iterations =  3.0

     total cpu time spent up to now is       79.4 secs

     total energy              =    -678.80806806 Ry
     estimated scf accuracy    <      36.07523328 Ry

     total magnetization       =     1.61 Bohr mag/cell
     absolute magnetization    =    10.29 Bohr mag/cell

     iteration # 23     ecut=    60.00 Ry     beta= 0.70
     Davidson diagonalization with overlap
     ethr =  7.75E-03,  avg # of iterations =  2.0

     negative rho (up, down):  1.046E-02 5.061E-04

     total cpu time spent up to now is       82.7 secs

     total energy              =    -679.45305213 Ry
     estimated scf accuracy    <      19.82649062 Ry

     total magnetization       =     1.28 Bohr mag/cell
     absolute magnetization    =     7.53 Bohr mag/cell

     iteration # 24     ecut=    60.00 Ry     beta= 0.70
     Davidson diagonalization with overlap
     ethr =  7.75E-03,  avg # of iterations =  3.1

     negative rho (up, down):  4.472E-07 4.881E-05

     total cpu time spent up to now is       86.8 secs

     total energy              =    -667.57301851 Ry
     estimated scf accuracy    <     779.30098464 Ry

     total magnetization       =     0.31 Bohr mag/cell
     absolute magnetization    =    56.18 Bohr mag/cell

     iteration # 25     ecut=    60.00 Ry     beta= 0.70
     Davidson diagonalization with overlap
     ethr =  7.75E-03,  avg # of iterations =  3.0

     total cpu time spent up to now is       90.8 secs

     total energy              =    -678.44031714 Ry
     estimated scf accuracy    <      25.73551313 Ry

     total magnetization       =     1.36 Bohr mag/cell
     absolute magnetization    =     8.36 Bohr mag/cell

     iteration # 26     ecut=    60.00 Ry     beta= 0.70
     Davidson diagonalization with overlap
     ethr =  7.75E-03,  avg # of iterations =  2.0

     total cpu time spent up to now is       94.1 secs

     total energy              =    -679.37116681 Ry
     estimated scf accuracy    <      33.52156972 Ry

     total magnetization       =     1.74 Bohr mag/cell
     absolute magnetization    =    10.15 Bohr mag/cell

     iteration # 27     ecut=    60.00 Ry     beta= 0.70
     Davidson diagonalization with overlap
     ethr =  7.75E-03,  avg # of iterations =  2.0

     negative rho (up, down):  0.000E+00 2.567E-03

     total cpu time spent up to now is       97.3 secs

     total energy              =    -680.40204559 Ry
     estimated scf accuracy    <      84.33916866 Ry

     total magnetization       =     1.38 Bohr mag/cell
     absolute magnetization    =    17.33 Bohr mag/cell

     iteration # 28     ecut=    60.00 Ry     beta= 0.70
     Davidson diagonalization with overlap
     ethr =  7.75E-03,  avg # of iterations =  2.0

     negative rho (up, down):  1.013E-05 0.000E+00

     total cpu time spent up to now is      100.7 secs

     total energy              =    -678.39552659 Ry
     estimated scf accuracy    <     221.17843743 Ry

     total magnetization       =     0.84 Bohr mag/cell
     absolute magnetization    =    29.71 Bohr mag/cell

     iteration # 29     ecut=    60.00 Ry     beta= 0.70
     Davidson diagonalization with overlap
     ethr =  7.75E-03,  avg # of iterations =  2.0

     negative rho (up, down):  1.124E-03 1.382E-02

     total cpu time spent up to now is      104.1 secs

     total energy              =    -679.35678222 Ry
     estimated scf accuracy    <     220.28530916 Ry

     total magnetization       =     1.42 Bohr mag/cell
     absolute magnetization    =    30.35 Bohr mag/cell

     iteration # 30     ecut=    60.00 Ry     beta= 0.70
     Davidson diagonalization with overlap
     ethr =  7.75E-03,  avg # of iterations =  2.2

     negative rho (up, down):  1.506E-05 4.403E-02

     total cpu time spent up to now is      107.6 secs

     total energy              =    -683.60524107 Ry
     estimated scf accuracy    <     246.71834199 Ry

     total magnetization       =     1.10 Bohr mag/cell
     absolute magnetization    =    30.33 Bohr mag/cell

     iteration # 31     ecut=    60.00 Ry     beta= 0.70
     Davidson diagonalization with overlap
     ethr =  7.75E-03,  avg # of iterations =  3.0

     negative rho (up, down):  4.426E-03 2.554E-02

     total cpu time spent up to now is      111.6 secs

     total energy              =    -676.18693688 Ry
     estimated scf accuracy    <     689.01315146 Ry

     total magnetization       =     1.48 Bohr mag/cell
     absolute magnetization    =    52.61 Bohr mag/cell

     iteration # 32     ecut=    60.00 Ry     beta= 0.70
     Davidson diagonalization with overlap
     ethr =  7.75E-03,  avg # of iterations =  2.6

     negative rho (up, down):  1.018E-03 2.305E-01

     total cpu time spent up to now is      115.3 secs

     total energy              =    -683.34709906 Ry
     estimated scf accuracy    <     292.52273696 Ry

     total magnetization       =     1.23 Bohr mag/cell
     absolute magnetization    =    31.82 Bohr mag/cell

     iteration # 33     ecut=    60.00 Ry     beta= 0.70
     Davidson diagonalization with overlap
     ethr =  7.75E-03,  avg # of iterations =  3.3

     negative rho (up, down):  7.976E-03 2.285E-01

     total cpu time spent up to now is      119.6 secs

     total energy              =    -695.37274341 Ry
     estimated scf accuracy    <     750.73475367 Ry

     total magnetization       =     1.05 Bohr mag/cell
     absolute magnetization    =    48.45 Bohr mag/cell

     iteration # 34     ecut=    60.00 Ry     beta= 0.70
     Davidson diagonalization with overlap
     ethr =  7.75E-03,  avg # of iterations =  2.1

     negative rho (up, down):  8.413E-02 2.248E-01

     total cpu time spent up to now is      122.9 secs

     total energy              =    -688.54942480 Ry
     estimated scf accuracy    <     728.30344088 Ry

     total magnetization       =     1.00 Bohr mag/cell
     absolute magnetization    =    47.22 Bohr mag/cell

     iteration # 35     ecut=    60.00 Ry     beta= 0.70
     Davidson diagonalization with overlap
     ethr =  7.75E-03,  avg # of iterations =  3.1

     negative rho (up, down):  8.795E-02 1.934E-01

     total cpu time spent up to now is      127.0 secs

     total energy              =    -701.62113559 Ry
     estimated scf accuracy    <    1082.73761768 Ry

     total magnetization       =     0.65 Bohr mag/cell
     absolute magnetization    =    51.65 Bohr mag/cell

     iteration # 36     ecut=    60.00 Ry     beta= 0.70
     Davidson diagonalization with overlap
     ethr =  7.75E-03,  avg # of iterations =  2.5

     negative rho (up, down):  1.629E+00 8.021E-01

     total cpu time spent up to now is      130.8 secs

     total energy              =    -697.20207304 Ry
     estimated scf accuracy    <    1030.66951777 Ry

     total magnetization       =     0.83 Bohr mag/cell
     absolute magnetization    =    51.06 Bohr mag/cell

     iteration # 37     ecut=    60.00 Ry     beta= 0.70
     Davidson diagonalization with overlap
     ethr =  7.75E-03,  avg # of iterations =  6.1

     negative rho (up, down):  1.252E+00 9.273E-01

     total cpu time spent up to now is      136.9 secs

     total energy              =    -759.32118441 Ry
     estimated scf accuracy    <    3261.35037715 Ry

     total magnetization       =    -0.06 Bohr mag/cell
     absolute magnetization    =    67.25 Bohr mag/cell

     iteration # 38     ecut=    60.00 Ry     beta= 0.70
     Davidson diagonalization with overlap
     ethr =  7.75E-03,  avg # of iterations =  5.4

     negative rho (up, down):  1.307E+00 9.279E-01

     total cpu time spent up to now is      143.0 secs

     total energy              =    -841.18988915 Ry
     estimated scf accuracy    <    3265.69006448 Ry

     total magnetization       =     0.49 Bohr mag/cell
     absolute magnetization    =    79.61 Bohr mag/cell

     iteration # 39     ecut=    60.00 Ry     beta= 0.70
     Davidson diagonalization with overlap
     ethr =  7.75E-03,  avg # of iterations =  4.0

     negative rho (up, down):  8.304E-01 3.763E-01

     total cpu time spent up to now is      147.4 secs

     total energy              =    -736.31389430 Ry
     estimated scf accuracy    <    3225.18087501 Ry

     total magnetization       =     0.51 Bohr mag/cell
     absolute magnetization    =    90.06 Bohr mag/cell

     iteration # 40     ecut=    60.00 Ry     beta= 0.70
     Davidson diagonalization with overlap
     ethr =  7.75E-03,  avg # of iterations =  4.1

     negative rho (up, down):  1.056E+00 7.174E-01

     total cpu time spent up to now is      152.2 secs

     total energy              =    -764.90058573 Ry
     estimated scf accuracy    <    2276.68183513 Ry

     total magnetization       =     0.25 Bohr mag/cell
     absolute magnetization    =    83.67 Bohr mag/cell

     iteration # 41     ecut=    60.00 Ry     beta= 0.70
     Davidson diagonalization with overlap
     ethr =  7.75E-03,  avg # of iterations =  4.5

     negative rho (up, down):  1.469E+00 2.614E+00

     total cpu time spent up to now is      157.1 secs

     total energy              =    -680.61349736 Ry
     estimated scf accuracy    <    2694.28792935 Ry

     total magnetization       =     0.02 Bohr mag/cell
     absolute magnetization    =    89.18 Bohr mag/cell

     iteration # 42     ecut=    60.00 Ry     beta= 0.70
     Davidson diagonalization with overlap
     ethr =  7.75E-03,  avg # of iterations =  6.0

     negative rho (up, down):  8.793E-01 3.181E+00

     total cpu time spent up to now is      163.5 secs

     total energy              =    -706.80455816 Ry
     estimated scf accuracy    <    3162.55562668 Ry

     total magnetization       =    -0.20 Bohr mag/cell
     absolute magnetization    =    70.48 Bohr mag/cell

     iteration # 43     ecut=    60.00 Ry     beta= 0.70
     Davidson diagonalization with overlap
     ethr =  7.75E-03,  avg # of iterations =  5.8

     negative rho (up, down):  1.132E+00 1.703E+00

     total cpu time spent up to now is      169.6 secs

     total energy              =    -669.42790990 Ry
     estimated scf accuracy    <    2905.46581300 Ry

     total magnetization       =     0.03 Bohr mag/cell
     absolute magnetization    =    62.02 Bohr mag/cell

     iteration # 44     ecut=    60.00 Ry     beta= 0.70
     Davidson diagonalization with overlap
     ethr =  7.75E-03,  avg # of iterations =  5.8

     negative rho (up, down):  1.778E+00 1.872E+00

     total cpu time spent up to now is      175.8 secs

     total energy              =    -771.92293801 Ry
     estimated scf accuracy    <    2478.99579538 Ry

     total magnetization       =    -0.16 Bohr mag/cell
     absolute magnetization    =    90.28 Bohr mag/cell

     iteration # 45     ecut=    60.00 Ry     beta= 0.70
     Davidson diagonalization with overlap
     ethr =  7.75E-03,  avg # of iterations =  5.4

     negative rho (up, down):  3.139E+00 3.384E+00

     total cpu time spent up to now is      181.7 secs

     total energy              =    -642.38912218 Ry
     estimated scf accuracy    <    3031.55008367 Ry

     total magnetization       =     0.00 Bohr mag/cell
     absolute magnetization    =    83.96 Bohr mag/cell

     iteration # 46     ecut=    60.00 Ry     beta= 0.70
     Davidson diagonalization with overlap
     ethr =  7.75E-03,  avg # of iterations =  5.6

     negative rho (up, down):  4.773E+00 4.639E+00

     total cpu time spent up to now is      187.9 secs

     total energy              =    -776.41802105 Ry
     estimated scf accuracy    <    2813.48981014 Ry

     total magnetization       =     0.33 Bohr mag/cell
     absolute magnetization    =    90.94 Bohr mag/cell

     iteration # 47     ecut=    60.00 Ry     beta= 0.70
     Davidson diagonalization with overlap
     ethr =  7.75E-03,  avg # of iterations =  6.6

     negative rho (up, down):  4.480E+00 4.037E+00

     total cpu time spent up to now is      194.7 secs

     total energy              =    -659.42886420 Ry
     estimated scf accuracy    <    3279.87496887 Ry

     total magnetization       =     0.22 Bohr mag/cell
     absolute magnetization    =    78.99 Bohr mag/cell

     iteration # 48     ecut=    60.00 Ry     beta= 0.70
     Davidson diagonalization with overlap
     ethr =  7.75E-03,  avg # of iterations =  6.4

     negative rho (up, down):  4.788E+00 7.687E+00

     total cpu time spent up to now is      201.4 secs

     total energy              =    -740.68098893 Ry
     estimated scf accuracy    <    2992.59614836 Ry

     total magnetization       =     0.24 Bohr mag/cell
     absolute magnetization    =    84.07 Bohr mag/cell

     iteration # 49     ecut=    60.00 Ry     beta= 0.70
     Davidson diagonalization with overlap
     ethr =  7.75E-03,  avg # of iterations =  9.2

     negative rho (up, down):  4.768E+00 5.415E+00

     total cpu time spent up to now is      209.7 secs

     total energy              =    -619.60776050 Ry
     estimated scf accuracy    <    3804.80227633 Ry

     total magnetization       =    -0.07 Bohr mag/cell
     absolute magnetization    =    54.39 Bohr mag/cell

     iteration # 50     ecut=    60.00 Ry     beta= 0.70
     Davidson diagonalization with overlap
     ethr =  7.75E-03,  avg # of iterations =  6.3

     negative rho (up, down):  4.136E+00 4.268E+00

     total cpu time spent up to now is      216.4 secs

     total energy              =    -773.48238697 Ry
     estimated scf accuracy    <    2254.98139433 Ry

     total magnetization       =    -0.03 Bohr mag/cell
     absolute magnetization    =   109.96 Bohr mag/cell

     iteration # 51     ecut=    60.00 Ry     beta= 0.70
     Davidson diagonalization with overlap
     ethr =  7.75E-03,  avg # of iterations =  4.4

     negative rho (up, down):  4.180E+00 4.069E+00

     total cpu time spent up to now is      221.0 secs

     total energy              =    -786.52463881 Ry
     estimated scf accuracy    <    2081.71375566 Ry

     total magnetization       =     0.23 Bohr mag/cell
     absolute magnetization    =    95.24 Bohr mag/cell

     iteration # 52     ecut=    60.00 Ry     beta= 0.70
     Davidson diagonalization with overlap
     ethr =  7.75E-03,  avg # of iterations =  4.1

     negative rho (up, down):  4.761E+00 8.209E+00

     total cpu time spent up to now is      225.5 secs

     total energy              =    -589.21445897 Ry
     estimated scf accuracy    <    2305.84091958 Ry

     total magnetization       =     0.26 Bohr mag/cell
     absolute magnetization    =    94.33 Bohr mag/cell

     iteration # 53     ecut=    60.00 Ry     beta= 0.70
     Davidson diagonalization with overlap
     ethr =  7.75E-03,  avg # of iterations =  9.7

     negative rho (up, down):  4.499E+00 4.112E+00

     total cpu time spent up to now is      234.4 secs

     total energy              =    -478.81453289 Ry
     estimated scf accuracy    <    5280.47382868 Ry

     total magnetization       =     0.12 Bohr mag/cell
     absolute magnetization    =    24.22 Bohr mag/cell

     iteration # 54     ecut=    60.00 Ry     beta= 0.70
     Davidson diagonalization with overlap
     ethr =  7.75E-03,  avg # of iterations =  6.1

     negative rho (up, down):  6.181E+00 7.073E+00

     total cpu time spent up to now is      241.4 secs

     total energy              =    -734.40593964 Ry
     estimated scf accuracy    <    2201.07214855 Ry

     total magnetization       =     0.15 Bohr mag/cell
     absolute magnetization    =   111.02 Bohr mag/cell

     iteration # 55     ecut=    60.00 Ry     beta= 0.70
     Davidson diagonalization with overlap
     ethr =  7.75E-03,  avg # of iterations =  6.3

     negative rho (up, down):  7.954E+00 4.494E+00

     total cpu time spent up to now is      247.8 secs

     total energy              =    -515.25782807 Ry
     estimated scf accuracy    <    2880.39704034 Ry

     total magnetization       =     0.09 Bohr mag/cell
     absolute magnetization    =    67.76 Bohr mag/cell

     iteration # 56     ecut=    60.00 Ry     beta= 0.70
     Davidson diagonalization with overlap
     ethr =  7.75E-03,  avg # of iterations =  7.7

     negative rho (up, down):  8.336E+00 4.662E+00

     total cpu time spent up to now is      255.2 secs

     total energy              =    -643.01937712 Ry
     estimated scf accuracy    <    3657.61625004 Ry

     total magnetization       =     0.65 Bohr mag/cell
     absolute magnetization    =    54.58 Bohr mag/cell

     iteration # 57     ecut=    60.00 Ry     beta= 0.70
     Davidson diagonalization with overlap
     ethr =  7.75E-03,  avg # of iterations =  8.8

     negative rho (up, down):  7.087E+00 6.631E+00

     total cpu time spent up to now is      263.4 secs

     total energy              =    -430.40388245 Ry
     estimated scf accuracy    <    4287.65891576 Ry

     total magnetization       =     0.30 Bohr mag/cell
     absolute magnetization    =    50.66 Bohr mag/cell

     iteration # 58     ecut=    60.00 Ry     beta= 0.70
     Davidson diagonalization with overlap
     ethr =  7.75E-03,  avg # of iterations =  9.0

     negative rho (up, down):  5.680E+00 7.590E+00

     total cpu time spent up to now is      271.6 secs

     total energy              =    -599.82543967 Ry
     estimated scf accuracy    <    3551.04979152 Ry

     total magnetization       =     0.27 Bohr mag/cell
     absolute magnetization    =    62.63 Bohr mag/cell

     iteration # 59     ecut=    60.00 Ry     beta= 0.70
     Davidson diagonalization with overlap
     ethr =  7.75E-03,  avg # of iterations =  6.5

     negative rho (up, down):  6.801E+00 7.099E+00

     total cpu time spent up to now is      278.5 secs

     total energy              =    -718.36625261 Ry
     estimated scf accuracy    <    2695.47158569 Ry

     total magnetization       =    -0.12 Bohr mag/cell
     absolute magnetization    =    86.04 Bohr mag/cell

     iteration # 60     ecut=    60.00 Ry     beta= 0.70
     Davidson diagonalization with overlap
     ethr =  7.75E-03,  avg # of iterations =  5.0

     negative rho (up, down):  4.937E+00 5.003E+00

     total cpu time spent up to now is      284.3 secs

     total energy              =    -731.02041504 Ry
     estimated scf accuracy    <    2144.96190336 Ry

     total magnetization       =    -0.43 Bohr mag/cell
     absolute magnetization    =   124.55 Bohr mag/cell

     iteration # 61     ecut=    60.00 Ry     beta= 0.70
     Davidson diagonalization with overlap
     ethr =  7.75E-03,  avg # of iterations =  4.6

     negative rho (up, down):  5.772E+00 5.396E+00

     total cpu time spent up to now is      289.4 secs

     total energy              =    -774.52558685 Ry
     estimated scf accuracy    <    1993.88873005 Ry

     total magnetization       =    -0.10 Bohr mag/cell
     absolute magnetization    =   116.48 Bohr mag/cell

     iteration # 62     ecut=    60.00 Ry     beta= 0.70
     Davidson diagonalization with overlap
     ethr =  7.75E-03,  avg # of iterations =  4.0

     negative rho (up, down):  6.275E+00 7.227E+00

     total cpu time spent up to now is      293.8 secs

     total energy              =    -826.24018795 Ry
     estimated scf accuracy    <    2207.31997186 Ry

     total magnetization       =    -0.16 Bohr mag/cell
     absolute magnetization    =   123.80 Bohr mag/cell

     iteration # 63     ecut=    60.00 Ry     beta= 0.70
     Davidson diagonalization with overlap
     ethr =  7.75E-03,  avg # of iterations =  5.0

     negative rho (up, down):  5.746E+00 5.586E+00

     total cpu time spent up to now is      299.9 secs

     total energy              =    -695.76483084 Ry
     estimated scf accuracy    <    3038.48917602 Ry

     total magnetization       =     0.16 Bohr mag/cell
     absolute magnetization    =    88.02 Bohr mag/cell

     iteration # 64     ecut=    60.00 Ry     beta= 0.70
     Davidson diagonalization with overlap
     ethr =  7.75E-03,  avg # of iterations =  5.2

     negative rho (up, down):  8.087E+00 4.924E+00

     total cpu time spent up to now is      305.8 secs

     total energy              =    -544.60533191 Ry
     estimated scf accuracy    <    2184.38423240 Ry

     total magnetization       =    -0.14 Bohr mag/cell
     absolute magnetization    =   123.67 Bohr mag/cell

     iteration # 65     ecut=    60.00 Ry     beta= 0.70
     Davidson diagonalization with overlap
     ethr =  7.75E-03,  avg # of iterations =  8.5

     negative rho (up, down):  6.232E+00 4.999E+00

     total cpu time spent up to now is      313.6 secs

     total energy              =    -512.68514345 Ry
     estimated scf accuracy    <    3954.98503880 Ry

     total magnetization       =    -0.16 Bohr mag/cell
     absolute magnetization    =    48.75 Bohr mag/cell

     iteration # 66     ecut=    60.00 Ry     beta= 0.70
     Davidson diagonalization with overlap
     ethr =  7.75E-03,  avg # of iterations =  6.2

     negative rho (up, down):  7.419E+00 4.300E+00

     total cpu time spent up to now is      320.7 secs

     total energy              =    -773.67232566 Ry
     estimated scf accuracy    <    2166.90161335 Ry

     total magnetization       =    -0.11 Bohr mag/cell
     absolute magnetization    =   119.52 Bohr mag/cell

     iteration # 67     ecut=    60.00 Ry     beta= 0.70
     Davidson diagonalization with overlap
     ethr =  7.75E-03,  avg # of iterations =  6.3

     negative rho (up, down):  4.949E+00 7.220E+00

     total cpu time spent up to now is      327.3 secs

     total energy              =    -401.41800174 Ry
     estimated scf accuracy    <    3799.45723646 Ry

     total magnetization       =     0.35 Bohr mag/cell
     absolute magnetization    =    55.39 Bohr mag/cell

     iteration # 68     ecut=    60.00 Ry     beta= 0.70
     Davidson diagonalization with overlap
     ethr =  7.75E-03,  avg # of iterations =  9.1

     negative rho (up, down):  6.992E+00 6.423E+00

     total cpu time spent up to now is      335.6 secs

     total energy              =    -553.41141546 Ry
     estimated scf accuracy    <    3965.22646411 Ry

     total magnetization       =     0.03 Bohr mag/cell
     absolute magnetization    =    60.69 Bohr mag/cell

     iteration # 69     ecut=    60.00 Ry     beta= 0.70
     Davidson diagonalization with overlap
     ethr =  7.75E-03,  avg # of iterations =  7.2

     negative rho (up, down):  5.614E+00 6.168E+00

     total cpu time spent up to now is      343.2 secs

     total energy              =    -638.22837497 Ry
     estimated scf accuracy    <    3284.00824941 Ry

     total magnetization       =    -0.04 Bohr mag/cell
     absolute magnetization    =    78.09 Bohr mag/cell

     iteration # 70     ecut=    60.00 Ry     beta= 0.70
     Davidson diagonalization with overlap
     ethr =  7.75E-03,  avg # of iterations =  5.4

     negative rho (up, down):  4.954E+00 5.643E+00

     total cpu time spent up to now is      349.3 secs

     total energy              =    -753.91015390 Ry
     estimated scf accuracy    <    2129.37901909 Ry

     total magnetization       =     0.04 Bohr mag/cell
     absolute magnetization    =   124.44 Bohr mag/cell

     iteration # 71     ecut=    60.00 Ry     beta= 0.70
     Davidson diagonalization with overlap
     ethr =  7.75E-03,  avg # of iterations =  3.8

     negative rho (up, down):  4.697E+00 6.286E+00

     total cpu time spent up to now is      353.8 secs

     total energy              =    -762.37264366 Ry
     estimated scf accuracy    <    2002.27508556 Ry

     total magnetization       =    -0.12 Bohr mag/cell
     absolute magnetization    =   117.49 Bohr mag/cell

     iteration # 72     ecut=    60.00 Ry     beta= 0.70
     Davidson diagonalization with overlap
     ethr =  7.75E-03,  avg # of iterations =  3.9

     negative rho (up, down):  7.649E+00 7.237E+00

     total cpu time spent up to now is      358.4 secs

     total energy              =    -764.25411365 Ry
     estimated scf accuracy    <    1865.36952904 Ry

     total magnetization       =    -0.20 Bohr mag/cell
     absolute magnetization    =   105.66 Bohr mag/cell

     iteration # 73     ecut=    60.00 Ry     beta= 0.70
     Davidson diagonalization with overlap
     ethr =  7.75E-03,  avg # of iterations =  7.5

     negative rho (up, down):  4.783E+00 7.226E+00

     total cpu time spent up to now is      365.6 secs

     total energy              =    -553.43371744 Ry
     estimated scf accuracy    <    4062.20752865 Ry

     total magnetization       =     0.33 Bohr mag/cell
     absolute magnetization    =    46.02 Bohr mag/cell

     iteration # 74     ecut=    60.00 Ry     beta= 0.70
     Davidson diagonalization with overlap
     ethr =  7.75E-03,  avg # of iterations =  6.4

     negative rho (up, down):  7.486E+00 8.050E+00

     total cpu time spent up to now is      372.3 secs

     total energy              =    -718.05676091 Ry
     estimated scf accuracy    <    2917.23339381 Ry

     total magnetization       =     0.02 Bohr mag/cell
     absolute magnetization    =    87.03 Bohr mag/cell

     iteration # 75     ecut=    60.00 Ry     beta= 0.70
     Davidson diagonalization with overlap
     ethr =  7.75E-03,  avg # of iterations =  8.8

     negative rho (up, down):  5.173E+00 7.372E+00

     total cpu time spent up to now is      380.7 secs

     total energy              =    -575.17265867 Ry
     estimated scf accuracy    <    4277.54879922 Ry

     total magnetization       =    -0.22 Bohr mag/cell
     absolute magnetization    =    58.05 Bohr mag/cell

     iteration # 76     ecut=    60.00 Ry     beta= 0.70
     Davidson diagonalization with overlap
     ethr =  7.75E-03,  avg # of iterations =  5.6

     negative rho (up, down):  1.127E+01 6.435E+00

     total cpu time spent up to now is      387.4 secs

     total energy              =    -726.17826353 Ry
     estimated scf accuracy    <    1950.45510373 Ry

     total magnetization       =    -0.40 Bohr mag/cell
     absolute magnetization    =   106.36 Bohr mag/cell

     iteration # 77     ecut=    60.00 Ry     beta= 0.70
     Davidson diagonalization with overlap
     ethr =  7.75E-03,  avg # of iterations =  8.3

     negative rho (up, down):  8.649E+00 8.424E+00

     total cpu time spent up to now is      394.7 secs

     total energy              =    -636.08224368 Ry
     estimated scf accuracy    <    4240.76816145 Ry

     total magnetization       =     0.54 Bohr mag/cell
     absolute magnetization    =    61.03 Bohr mag/cell

     iteration # 78     ecut=    60.00 Ry     beta= 0.70
     Davidson diagonalization with overlap
     ethr =  7.75E-03,  avg # of iterations =  6.2

     negative rho (up, down):  1.058E+01 1.066E+01

     total cpu time spent up to now is      401.7 secs

     total energy              =    -594.88416499 Ry
     estimated scf accuracy    <    2493.65223835 Ry

     total magnetization       =    -0.18 Bohr mag/cell
     absolute magnetization    =    94.62 Bohr mag/cell

     iteration # 79     ecut=    60.00 Ry     beta= 0.70
     Davidson diagonalization with overlap
     ethr =  7.75E-03,  avg # of iterations = 10.0

     negative rho (up, down):  8.981E+00 8.991E+00

     total cpu time spent up to now is      410.5 secs

     total energy              =    -583.57263965 Ry
     estimated scf accuracy    <    4539.47413122 Ry

     total magnetization       =    -0.12 Bohr mag/cell
     absolute magnetization    =    52.09 Bohr mag/cell

     iteration # 80     ecut=    60.00 Ry     beta= 0.70
     Davidson diagonalization with overlap
     ethr =  7.75E-03,  avg # of iterations =  6.0

     negative rho (up, down):  7.986E+00 7.644E+00

     total cpu time spent up to now is      417.3 secs

     total energy              =    -777.07594343 Ry
     estimated scf accuracy    <    1717.41195967 Ry

     total magnetization       =    -0.14 Bohr mag/cell
     absolute magnetization    =   128.00 Bohr mag/cell

     iteration # 81     ecut=    60.00 Ry     beta= 0.70
     Davidson diagonalization with overlap
     ethr =  7.75E-03,  avg # of iterations =  3.5

     negative rho (up, down):  7.306E+00 6.315E+00

     total cpu time spent up to now is      421.3 secs

     total energy              =    -786.17930341 Ry
     estimated scf accuracy    <    1922.76476159 Ry

     total magnetization       =     0.10 Bohr mag/cell
     absolute magnetization    =   126.60 Bohr mag/cell

     iteration # 82     ecut=    60.00 Ry     beta= 0.70
     Davidson diagonalization with overlap
     ethr =  7.75E-03,  avg # of iterations =  5.0

     negative rho (up, down):  1.353E+01 1.128E+01

     total cpu time spent up to now is      426.8 secs

     total energy              =    -664.39352283 Ry
     estimated scf accuracy    <    2445.96641742 Ry

     total magnetization       =     0.22 Bohr mag/cell
     absolute magnetization    =   111.56 Bohr mag/cell

     iteration # 83     ecut=    60.00 Ry     beta= 0.70
     Davidson diagonalization with overlap
     ethr =  7.75E-03,  avg # of iterations =  6.2

     negative rho (up, down):  7.377E+00 8.003E+00

     total cpu time spent up to now is      433.6 secs

     total energy              =    -639.58200887 Ry
     estimated scf accuracy    <    2528.46109648 Ry

     total magnetization       =    -0.16 Bohr mag/cell
     absolute magnetization    =    84.65 Bohr mag/cell

     iteration # 84     ecut=    60.00 Ry     beta= 0.70
     Davidson diagonalization with overlap
     ethr =  7.75E-03,  avg # of iterations =  6.0

     negative rho (up, down):  7.874E+00 7.888E+00

     total cpu time spent up to now is      440.2 secs

     total energy              =    -787.03027829 Ry
     estimated scf accuracy    <    1967.35662948 Ry

     total magnetization       =    -0.26 Bohr mag/cell
     absolute magnetization    =   123.29 Bohr mag/cell

     iteration # 85     ecut=    60.00 Ry     beta= 0.70
     Davidson diagonalization with overlap
     ethr =  7.75E-03,  avg # of iterations =  6.1

     negative rho (up, down):  8.051E+00 1.659E+01

     total cpu time spent up to now is      446.5 secs

     total energy              =    -544.63052012 Ry
     estimated scf accuracy    <    2809.47134440 Ry

     total magnetization       =    -0.14 Bohr mag/cell
     absolute magnetization    =    89.73 Bohr mag/cell

     iteration # 86     ecut=    60.00 Ry     beta= 0.70
     Davidson diagonalization with overlap
     ethr =  7.75E-03,  avg # of iterations =  9.8

     negative rho (up, down):  1.071E+01 9.700E+00

     total cpu time spent up to now is      455.3 secs

     total energy              =    -414.35800919 Ry
     estimated scf accuracy    <    5438.59328289 Ry

     total magnetization       =    -0.11 Bohr mag/cell
     absolute magnetization    =    22.00 Bohr mag/cell

     iteration # 87     ecut=    60.00 Ry     beta= 0.70
     Davidson diagonalization with overlap
     ethr =  7.75E-03,  avg # of iterations =  7.3

     negative rho (up, down):  1.303E+01 1.176E+01

     total cpu time spent up to now is      462.7 secs

     total energy              =    -595.32411225 Ry
     estimated scf accuracy    <    2026.83514740 Ry

     total magnetization       =    -0.21 Bohr mag/cell
     absolute magnetization    =    95.46 Bohr mag/cell

     iteration # 88     ecut=    60.00 Ry     beta= 0.70
     Davidson diagonalization with overlap
     ethr =  7.75E-03,  avg # of iterations =  6.9

     negative rho (up, down):  1.232E+01 1.221E+01

     total cpu time spent up to now is      470.0 secs

     total energy              =    -626.00901127 Ry
     estimated scf accuracy    <    2417.34204656 Ry

     total magnetization       =     0.07 Bohr mag/cell
     absolute magnetization    =    92.58 Bohr mag/cell

     iteration # 89     ecut=    60.00 Ry     beta= 0.70
     Davidson diagonalization with overlap
     ethr =  7.75E-03,  avg # of iterations =  6.1

     negative rho (up, down):  1.146E+01 1.150E+01

     total cpu time spent up to now is      476.3 secs

     total energy              =    -677.51836514 Ry
     estimated scf accuracy    <    1979.84012885 Ry

     total magnetization       =     0.09 Bohr mag/cell
     absolute magnetization    =   105.62 Bohr mag/cell

     iteration # 90     ecut=    60.00 Ry     beta= 0.70
     Davidson diagonalization with overlap
     ethr =  7.75E-03,  avg # of iterations =  5.5

     negative rho (up, down):  1.089E+01 1.090E+01

     total cpu time spent up to now is      482.5 secs

     total energy              =    -739.90894136 Ry
     estimated scf accuracy    <    1212.94387696 Ry

     total magnetization       =    -0.02 Bohr mag/cell
     absolute magnetization    =   131.42 Bohr mag/cell

     iteration # 91     ecut=    60.00 Ry     beta= 0.70
     Davidson diagonalization with overlap
     ethr =  7.75E-03,  avg # of iterations =  4.2

     negative rho (up, down):  1.154E+01 1.111E+01

     total cpu time spent up to now is      486.9 secs

     total energy              =    -747.41417161 Ry
     estimated scf accuracy    <    1312.30026248 Ry

     total magnetization       =    -0.05 Bohr mag/cell
     absolute magnetization    =   131.05 Bohr mag/cell

     iteration # 92     ecut=    60.00 Ry     beta= 0.70
     Davidson diagonalization with overlap
     ethr =  7.75E-03,  avg # of iterations =  5.0

     negative rho (up, down):  1.395E+01 1.080E+01

     total cpu time spent up to now is      492.5 secs

     total energy              =    -712.80670205 Ry
     estimated scf accuracy    <    1697.37724390 Ry

     total magnetization       =     0.01 Bohr mag/cell
     absolute magnetization    =   114.42 Bohr mag/cell

     iteration # 93     ecut=    60.00 Ry     beta= 0.70
     Davidson diagonalization with overlap
     ethr =  7.75E-03,  avg # of iterations =  7.1

     negative rho (up, down):  1.083E+01 1.079E+01

     total cpu time spent up to now is      499.9 secs

     total energy              =    -545.73392683 Ry
     estimated scf accuracy    <    3734.00216594 Ry

     total magnetization       =     0.12 Bohr mag/cell
     absolute magnetization    =    63.35 Bohr mag/cell

     iteration # 94     ecut=    60.00 Ry     beta= 0.70
     Davidson diagonalization with overlap
     ethr =  7.75E-03,  avg # of iterations =  5.1

     negative rho (up, down):  1.146E+01 1.125E+01

     total cpu time spent up to now is      505.9 secs

     total energy              =    -742.63217676 Ry
     estimated scf accuracy    <    1324.86897808 Ry

     total magnetization       =     0.01 Bohr mag/cell
     absolute magnetization    =   130.93 Bohr mag/cell

     iteration # 95     ecut=    60.00 Ry     beta= 0.70
     Davidson diagonalization with overlap
     ethr =  7.75E-03,  avg # of iterations =  4.5

     negative rho (up, down):  1.180E+01 1.702E+01

     total cpu time spent up to now is      510.9 secs

     total energy              =    -728.83603564 Ry
     estimated scf accuracy    <    1419.93006401 Ry

     total magnetization       =    -0.37 Bohr mag/cell
     absolute magnetization    =   123.39 Bohr mag/cell

     iteration # 96     ecut=    60.00 Ry     beta= 0.70
     Davidson diagonalization with overlap
     ethr =  7.75E-03,  avg # of iterations =  6.1

     negative rho (up, down):  1.481E+01 1.178E+01

     total cpu time spent up to now is      517.8 secs

     total energy              =    -382.33231838 Ry
     estimated scf accuracy    <    3684.29819719 Ry

     total magnetization       =     0.08 Bohr mag/cell
     absolute magnetization    =    39.65 Bohr mag/cell

     iteration # 97     ecut=    60.00 Ry     beta= 0.70
     Davidson diagonalization with overlap
     ethr =  7.75E-03,  avg # of iterations =  8.0

     negative rho (up, down):  1.333E+01 1.290E+01

     total cpu time spent up to now is      525.5 secs

     total energy              =    -516.22543542 Ry
     estimated scf accuracy    <    3633.29987737 Ry

     total magnetization       =     0.34 Bohr mag/cell
     absolute magnetization    =    62.01 Bohr mag/cell

     iteration # 98     ecut=    60.00 Ry     beta= 0.70
     Davidson diagonalization with overlap
     ethr =  7.75E-03,  avg # of iterations =  7.0

     negative rho (up, down):  1.415E+01 1.360E+01

     total cpu time spent up to now is      532.8 secs

     total energy              =    -611.81117379 Ry
     estimated scf accuracy    <    2505.80233396 Ry

     total magnetization       =     0.17 Bohr mag/cell
     absolute magnetization    =    92.32 Bohr mag/cell

     iteration # 99     ecut=    60.00 Ry     beta= 0.70
     Davidson diagonalization with overlap
     ethr =  7.75E-03,  avg # of iterations =  5.5

     negative rho (up, down):  1.433E+01 1.413E+01

     total cpu time spent up to now is      539.1 secs

     total energy              =    -715.32620609 Ry
     estimated scf accuracy    <     963.70626560 Ry

     total magnetization       =     0.06 Bohr mag/cell
     absolute magnetization    =   127.56 Bohr mag/cell

     iteration #100     ecut=    60.00 Ry     beta= 0.70
     Davidson diagonalization with overlap
     ethr =  7.75E-03,  avg # of iterations =  4.4

     negative rho (up, down):  1.390E+01 1.377E+01

     total cpu time spent up to now is      543.9 secs

     total energy              =    -725.77405716 Ry
     estimated scf accuracy    <     834.76667168 Ry

     total magnetization       =    -0.09 Bohr mag/cell
     absolute magnetization    =   131.83 Bohr mag/cell

     End of self-consistent calculation

     convergence NOT achieved after 100 iterations: stopping

     Writing config to output data dir ./out/pwscf.save/

     init_run     :      0.83s CPU      1.02s WALL (       1 calls)
     electrons    :    432.14s CPU    542.78s WALL (       1 calls)

     Called by init_run:
     wfcinit      :      0.71s CPU      0.86s WALL (       1 calls)
     potinit      :      0.03s CPU      0.03s WALL (       1 calls)
     hinit0       :      0.08s CPU      0.10s WALL (       1 calls)

     Called by electrons:
     c_bands      :    401.04s CPU    504.25s WALL (     100 calls)
     sum_band     :     29.31s CPU     36.57s WALL (     100 calls)
     v_of_rho     :      0.75s CPU      0.79s WALL (     101 calls)
     newd         :      0.86s CPU      0.89s WALL (     101 calls)
     mix_rho      :      0.11s CPU      0.18s WALL (     100 calls)

     Called by c_bands:
     init_us_2    :      1.28s CPU      1.61s WALL (   61104 calls)
     init_us_2:cp :      1.21s CPU      1.54s WALL (   61104 calls)
     cegterg      :    394.79s CPU    496.25s WALL (   30400 calls)

     Called by *egterg:
     cdiaghg      :    100.16s CPU    127.94s WALL (  178266 calls)
     h_psi        :    191.61s CPU    246.51s WALL (  178570 calls)
     s_psi        :     12.92s CPU     15.62s WALL (  178570 calls)
     g_psi        :      0.60s CPU      0.69s WALL (  147866 calls)

     Called by h_psi:
     h_psi:calbec :     13.77s CPU     17.71s WALL (  178570 calls)
     vloc_psi     :    164.24s CPU    211.88s WALL (  178570 calls)
     add_vuspsi   :     12.76s CPU     15.89s WALL (  178570 calls)

     General routines
     calbec       :     16.78s CPU     21.53s WALL (  208970 calls)
     fft          :      0.31s CPU      0.37s WALL (    2523 calls)
     ffts         :      0.02s CPU      0.02s WALL (     402 calls)
     fftw         :    178.30s CPU    229.42s WALL ( 5671610 calls)
     interpolate  :      0.03s CPU      0.04s WALL (     202 calls)
     davcio       :      0.00s CPU      0.00s WALL (      18 calls)

     Parallel routines

     PWSCF        :   7m13.10s CPU   9m 3.99s WALL


   This run was terminated on:  14:29:21  23Jun2023            

=------------------------------------------------------------------------------=
   JOB DONE.
=------------------------------------------------------------------------------=
Note: The following floating-point exceptions are signalling: IEEE_DENORMAL
Note: The following floating-point exceptions are signalling: IEEE_DENORMAL
Note: The following floating-point exceptions are signalling: IEEE_DENORMAL
Note: The following floating-point exceptions are signalling: IEEE_DENORMAL
Note: The following floating-point exceptions are signalling: IEEE_DENORMAL
Note: The following floating-point exceptions are signalling: IEEE_DENORMAL
