Ignoring PCI device with non-16bit domain.
Pass --enable-32bits-pci-domain to configure to support such devices
(warning: it would break the library ABI, don't enable unless really needed).

     Program PWSCF v.7.1 starts on 18Jun2023 at 11:38: 0 

     This program is part of the open-source Quantum ESPRESSO suite
     for quantum simulation of materials; please cite
         "P. Giannozzi et al., J. Phys.:Condens. Matter 21 395502 (2009);
         "P. Giannozzi et al., J. Phys.:Condens. Matter 29 465901 (2017);
         "P. Giannozzi et al., J. Chem. Phys. 152 154105 (2020);
          URL http://www.quantum-espresso.org", 
     in publications or presentations arising from this work. More details at
     http://www.quantum-espresso.org/quote

     Parallel version (MPI), running on    24 processors

     MPI processes distributed on     1 nodes
     9675 MiB available memory on the printing compute node when the environment starts

     Reading input from Ni_orthorhombic_boco_atoms.in
Warning: card &CELL ignored
Warning: card   CELL_DOFREE  =  "ALL", ignored
Warning: card   CELL_DYNAMICS  =  "BFGS", ignored
Warning: card / ignored

     Current dimensions of program PWSCF are:
     Max number of different atomic species (ntypx) = 10
     Max number of k-points (npk) =  40000
     Max angular momentum in pseudopotentials (lmaxx) =  4

     K-points division:     npool     =       4
     R & G space division:  proc/nbgrp/npool/nimage =       6
     Subspace diagonalization in iterative solution of the eigenvalue problem:
     a serial algorithm will be used


     Parallelization info
     --------------------
     sticks:   dense  smooth     PW     G-vecs:    dense   smooth      PW
     Min          17      17     10                  102      102      48
     Max          18      18     11                  103      103      49
     Sum         103     103     63                  617      617     289

     Using Slab Decomposition



     bravais-lattice index     =            0
     lattice parameter (alat)  =       2.0569  a.u.
     unit-cell volume          =       6.4701 (a.u.)^3
     number of atoms/cell      =            1
     number of atomic types    =            1
     number of electrons       =        18.00
     number of Kohn-Sham states=           13
     kinetic-energy cutoff     =      80.0000  Ry
     charge density cutoff     =     320.0000  Ry
     scf convergence threshold =      1.0E-09
     mixing beta               =       0.7000
     number of iterations used =            8  TF        mixing
     Exchange-correlation= PBE
                           (   1   4   3   4   0   0   0)

     celldm(1)=   2.056929  celldm(2)=   0.000000  celldm(3)=   0.000000
     celldm(4)=   0.000000  celldm(5)=   0.000000  celldm(6)=   0.000000

     crystal axes: (cart. coord. in units of alat)
               a(1) = (   1.000000   0.000000   0.000000 )  
               a(2) = (  -0.181601   0.983372   0.000000 )  
               a(3) = (  -0.302669  -0.580356   0.756028 )  

     reciprocal axes: (cart. coord. in units 2 pi/alat)
               b(1) = (  1.000000  0.184671  0.542102 )  
               b(2) = ( -0.000000  1.016909  0.780618 )  
               b(3) = (  0.000000 -0.000000  1.322702 )  


     PseudoPot. # 1 for Ni read from file:
     /home/jmgoff/work/automation/qe_pseudos/Ni.upf
     MD5 check sum: 2b0a79d100e227970886d6963e34175b
     Pseudo is Norm-conserving + core correction, Zval = 18.0
     Generated using ONCVPSP code by D. R. Hamann
     Using radial grid of 1372 points,  6 beta functions with: 
                l(1) =   0
                l(2) =   0
                l(3) =   1
                l(4) =   1
                l(5) =   2
                l(6) =   2

     atomic species   valence    mass     pseudopotential
        Ni            18.00    58.69340     Ni( 1.00)

     Starting magnetic structure 
     atomic species   magnetization
        Ni           0.700

     No symmetry found



   Cartesian axes

     site n.     atom                  positions (alat units)
         1           Ni  tau(   1) = (   0.0000000   0.0000000   0.0000000  )

     number of k points=  1376  Marzari-Vanderbilt smearing, width (Ry)=  0.0100

     Number of k-points >= 100: set verbosity='high' to print them.

     Dense  grid:      617 G-vectors     FFT dimensions: (  12,  12,  12)

     Estimated max dynamical RAM per process >       3.37 MB

     Estimated total dynamical RAM >      79.87 MB
     Generating pointlists ...
     new r_m :   0.4060 (alat units)  0.8350 (a.u.) for type    1

     Initial potential from superposition of free atoms

     starting charge      17.9998, renormalised to      18.0000
     Starting wfcs are   10 randomized atomic wfcs +    3 random wfcs

     total cpu time spent up to now is        0.5 secs

     Self-consistent Calculation

     iteration #  1     ecut=    80.00 Ry     beta= 0.70
     Davidson diagonalization with overlap
     ethr =  1.00E-02,  avg # of iterations =  4.9

     total cpu time spent up to now is        2.9 secs

     total energy              =    -311.34702052 Ry
     estimated scf accuracy    <      10.05569009 Ry

     total magnetization       =     0.00 Bohr mag/cell
     absolute magnetization    =     0.06 Bohr mag/cell

     iteration #  2     ecut=    80.00 Ry     beta= 0.70
     Davidson diagonalization with overlap
     ethr =  1.00E-02,  avg # of iterations =  1.0

     total cpu time spent up to now is        3.9 secs

     total energy              =    -311.67565266 Ry
     estimated scf accuracy    <       0.93187054 Ry

     total magnetization       =     0.00 Bohr mag/cell
     absolute magnetization    =     0.01 Bohr mag/cell

     iteration #  3     ecut=    80.00 Ry     beta= 0.70
     Davidson diagonalization with overlap
     ethr =  5.18E-03,  avg # of iterations =  1.0

     total cpu time spent up to now is        5.0 secs

     total energy              =    -311.68949171 Ry
     estimated scf accuracy    <       0.00101470 Ry

     total magnetization       =     0.00 Bohr mag/cell
     absolute magnetization    =     0.00 Bohr mag/cell

     iteration #  4     ecut=    80.00 Ry     beta= 0.70
     Davidson diagonalization with overlap
     ethr =  5.64E-06,  avg # of iterations =  2.9

     total cpu time spent up to now is        6.7 secs

     total energy              =    -311.68955670 Ry
     estimated scf accuracy    <       0.00000883 Ry

     total magnetization       =    -0.00 Bohr mag/cell
     absolute magnetization    =     0.00 Bohr mag/cell

     iteration #  5     ecut=    80.00 Ry     beta= 0.70
     Davidson diagonalization with overlap
     ethr =  4.91E-08,  avg # of iterations =  1.8

     total cpu time spent up to now is        8.0 secs

     total energy              =    -311.68955752 Ry
     estimated scf accuracy    <       0.00000056 Ry

     total magnetization       =     0.00 Bohr mag/cell
     absolute magnetization    =     0.00 Bohr mag/cell

     iteration #  6     ecut=    80.00 Ry     beta= 0.70
     Davidson diagonalization with overlap
     ethr =  3.12E-09,  avg # of iterations =  1.0

     total cpu time spent up to now is        9.0 secs

     total energy              =    -311.68955754 Ry
     estimated scf accuracy    <          3.0E-09 Ry

     total magnetization       =    -0.00 Bohr mag/cell
     absolute magnetization    =     0.00 Bohr mag/cell

     iteration #  7     ecut=    80.00 Ry     beta= 0.70
     Davidson diagonalization with overlap
     ethr =  1.69E-11,  avg # of iterations =  1.9

     Magnetic moment per site  (integrated on atomic sphere of radius R)
     atom   1 (R=0.406)  charge= 13.0076  magn= -0.0000

     total cpu time spent up to now is       10.3 secs

     End of self-consistent calculation

     Number of k-points >= 100: set verbosity='high' to print the bands.

     the Fermi energy is   222.4476 ev

!    total energy              =    -311.68955754 Ry
     estimated scf accuracy    <          9.6E-11 Ry
     smearing contrib. (-TS)   =       0.00000000 Ry
     internal energy E=F+TS    =    -311.68955754 Ry

     The total energy is F=E-TS. E is the sum of the following terms:
     one-electron contribution =     232.99678870 Ry
     hartree contribution      =      10.18045172 Ry
     xc contribution           =     -53.66097384 Ry
     ewald contribution        =    -501.20582413 Ry

     total magnetization       =    -0.00 Bohr mag/cell
     absolute magnetization    =     0.00 Bohr mag/cell

     convergence has been achieved in   7 iterations

     Forces acting on atoms (cartesian axes, Ry/au):

     atom    1 type  1   force =     0.00000000    0.00000000    0.00000000

     Total force =     0.000000     Total SCF correction =     0.000000


     Computing stress (Cartesian axis) and pressure

          total   stress  (Ry/bohr**3)                   (kbar)     P=   890624.78
   5.95905035  -0.12830199  -0.47470931       876606.57   -18873.87   -69832.15
  -0.12830199   5.91160955   0.39517794       -18873.87   869627.79    58132.68
  -0.47470931   0.39517794   6.29237282       -69832.15    58132.68   925640.00


     Writing all to output data dir ./out/pwscf.save/

     init_run     :      0.27s CPU      0.40s WALL (       1 calls)
     electrons    :      6.62s CPU      9.88s WALL (       1 calls)
     forces       :      0.06s CPU      0.10s WALL (       1 calls)
     stress       :      0.11s CPU      0.13s WALL (       1 calls)

     Called by init_run:
     wfcinit      :      0.25s CPU      0.37s WALL (       1 calls)
     potinit      :      0.00s CPU      0.00s WALL (       1 calls)
     hinit0       :      0.02s CPU      0.02s WALL (       1 calls)

     Called by electrons:
     c_bands      :      6.04s CPU      8.94s WALL (       7 calls)
     sum_band     :      0.58s CPU      0.93s WALL (       7 calls)
     v_of_rho     :      0.00s CPU      0.01s WALL (       8 calls)
     mix_rho      :      0.00s CPU      0.00s WALL (       7 calls)

     Called by c_bands:
     init_us_2    :      0.06s CPU      0.08s WALL (   11696 calls)
     init_us_2:cp :      0.05s CPU      0.07s WALL (   11696 calls)
     cegterg      :      5.52s CPU      7.94s WALL (    4816 calls)

     Called by *egterg:
     cdiaghg      :      1.65s CPU      2.23s WALL (   14394 calls)
     h_psi        :      3.27s CPU      4.86s WALL (   15082 calls)
     g_psi        :      0.01s CPU      0.01s WALL (    9578 calls)

     Called by h_psi:
     h_psi:calbec :      0.26s CPU      0.39s WALL (   15082 calls)
     vloc_psi     :      2.85s CPU      4.23s WALL (   15082 calls)
     add_vuspsi   :      0.12s CPU      0.18s WALL (   15082 calls)

     General routines
     calbec       :      0.31s CPU      0.46s WALL (   18522 calls)
     fft          :      0.00s CPU      0.00s WALL (     192 calls)
     ffts         :      0.00s CPU      0.00s WALL (      14 calls)
     fftw         :      3.16s CPU      4.76s WALL (  368126 calls)

     Parallel routines

     PWSCF        :      7.47s CPU     12.06s WALL


   This run was terminated on:  11:38:12  18Jun2023            

=------------------------------------------------------------------------------=
   JOB DONE.
=------------------------------------------------------------------------------=
