Ignoring PCI device with non-16bit domain.
Pass --enable-32bits-pci-domain to configure to support such devices
(warning: it would break the library ABI, don't enable unless really needed).

     Program PWSCF v.7.1 starts on 18Jun2023 at 11:37:48 

     This program is part of the open-source Quantum ESPRESSO suite
     for quantum simulation of materials; please cite
         "P. Giannozzi et al., J. Phys.:Condens. Matter 21 395502 (2009);
         "P. Giannozzi et al., J. Phys.:Condens. Matter 29 465901 (2017);
         "P. Giannozzi et al., J. Chem. Phys. 152 154105 (2020);
          URL http://www.quantum-espresso.org", 
     in publications or presentations arising from this work. More details at
     http://www.quantum-espresso.org/quote

     Parallel version (MPI), running on    24 processors

     MPI processes distributed on     1 nodes
     9684 MiB available memory on the printing compute node when the environment starts

     Reading input from Ni_cubic_bcc_atoms.in
Warning: card &CELL ignored
Warning: card   CELL_DOFREE  =  "ALL", ignored
Warning: card   CELL_DYNAMICS  =  "BFGS", ignored
Warning: card / ignored

     Current dimensions of program PWSCF are:
     Max number of different atomic species (ntypx) = 10
     Max number of k-points (npk) =  40000
     Max angular momentum in pseudopotentials (lmaxx) =  4

     K-points division:     npool     =       4
     R & G space division:  proc/nbgrp/npool/nimage =       6
     Subspace diagonalization in iterative solution of the eigenvalue problem:
     a serial algorithm will be used


     Parallelization info
     --------------------
     sticks:   dense  smooth     PW     G-vecs:    dense   smooth      PW
     Min          21      21     11                  158      158      61
     Max          22      22     12                  161      161      63
     Sum         129     129     67                  959      959     369

     Using Slab Decomposition



     bravais-lattice index     =            0
     lattice parameter (alat)  =       2.3283  a.u.
     unit-cell volume          =       9.7166 (a.u.)^3
     number of atoms/cell      =            1
     number of atomic types    =            1
     number of electrons       =        18.00
     number of Kohn-Sham states=           13
     kinetic-energy cutoff     =      80.0000  Ry
     charge density cutoff     =     320.0000  Ry
     scf convergence threshold =      1.0E-09
     mixing beta               =       0.7000
     number of iterations used =            8  TF        mixing
     Exchange-correlation= PBE
                           (   1   4   3   4   0   0   0)

     celldm(1)=   2.328331  celldm(2)=   0.000000  celldm(3)=   0.000000
     celldm(4)=   0.000000  celldm(5)=   0.000000  celldm(6)=   0.000000

     crystal axes: (cart. coord. in units of alat)
               a(1) = (   1.000000   0.000000   0.000000 )  
               a(2) = (  -0.333330   0.942810   0.000000 )  
               a(3) = (  -0.333330  -0.471397   0.816502 )  

     reciprocal axes: (cart. coord. in units 2 pi/alat)
               b(1) = (  1.000000  0.353549  0.612358 )  
               b(2) = ( -0.000000  1.060659  0.612358 )  
               b(3) = (  0.000000 -0.000000  1.224737 )  


     PseudoPot. # 1 for Ni read from file:
     /home/jmgoff/work/automation/qe_pseudos/Ni.upf
     MD5 check sum: 2b0a79d100e227970886d6963e34175b
     Pseudo is Norm-conserving + core correction, Zval = 18.0
     Generated using ONCVPSP code by D. R. Hamann
     Using radial grid of 1372 points,  6 beta functions with: 
                l(1) =   0
                l(2) =   0
                l(3) =   1
                l(4) =   1
                l(5) =   2
                l(6) =   2

     atomic species   valence    mass     pseudopotential
        Ni            18.00    58.69340     Ni( 1.00)

     Starting magnetic structure 
     atomic species   magnetization
        Ni           0.700

     No symmetry found



   Cartesian axes

     site n.     atom                  positions (alat units)
         1           Ni  tau(   1) = (   0.0000000   0.0000000   0.0000000  )

     number of k points=   868  Marzari-Vanderbilt smearing, width (Ry)=  0.0100

     Number of k-points >= 100: set verbosity='high' to print them.

     Dense  grid:      959 G-vectors     FFT dimensions: (  15,  15,  15)

     Estimated max dynamical RAM per process >       3.32 MB

     Estimated total dynamical RAM >      78.22 MB
     Generating pointlists ...
     new r_m :   0.4125 (alat units)  0.9604 (a.u.) for type    1

     Initial potential from superposition of free atoms

     starting charge      17.9998, renormalised to      18.0000
     Starting wfcs are   10 randomized atomic wfcs +    3 random wfcs

     total cpu time spent up to now is        0.4 secs

     Self-consistent Calculation

     iteration #  1     ecut=    80.00 Ry     beta= 0.70
     Davidson diagonalization with overlap
     ethr =  1.00E-02,  avg # of iterations =  4.4

     total cpu time spent up to now is        2.0 secs

     total energy              =    -323.45892437 Ry
     estimated scf accuracy    <       7.70884391 Ry

     total magnetization       =     0.02 Bohr mag/cell
     absolute magnetization    =     0.14 Bohr mag/cell

     iteration #  2     ecut=    80.00 Ry     beta= 0.70
     Davidson diagonalization with overlap
     ethr =  1.00E-02,  avg # of iterations =  1.0

     total cpu time spent up to now is        2.8 secs

     total energy              =    -323.78433279 Ry
     estimated scf accuracy    <       0.72213821 Ry

     total magnetization       =    -0.00 Bohr mag/cell
     absolute magnetization    =     0.03 Bohr mag/cell

     iteration #  3     ecut=    80.00 Ry     beta= 0.70
     Davidson diagonalization with overlap
     ethr =  4.01E-03,  avg # of iterations =  1.0

     total cpu time spent up to now is        3.6 secs

     total energy              =    -323.79186705 Ry
     estimated scf accuracy    <       0.00058098 Ry

     total magnetization       =    -0.00 Bohr mag/cell
     absolute magnetization    =     0.00 Bohr mag/cell

     iteration #  4     ecut=    80.00 Ry     beta= 0.70
     Davidson diagonalization with overlap
     ethr =  3.23E-06,  avg # of iterations =  3.1

     total cpu time spent up to now is        4.9 secs

     total energy              =    -323.79190842 Ry
     estimated scf accuracy    <       0.00002366 Ry

     total magnetization       =    -0.00 Bohr mag/cell
     absolute magnetization    =     0.00 Bohr mag/cell

     iteration #  5     ecut=    80.00 Ry     beta= 0.70
     Davidson diagonalization with overlap
     ethr =  1.31E-07,  avg # of iterations =  1.2

     total cpu time spent up to now is        5.7 secs

     total energy              =    -323.79190938 Ry
     estimated scf accuracy    <       0.00000048 Ry

     total magnetization       =    -0.00 Bohr mag/cell
     absolute magnetization    =     0.00 Bohr mag/cell

     iteration #  6     ecut=    80.00 Ry     beta= 0.70
     Davidson diagonalization with overlap
     ethr =  2.69E-09,  avg # of iterations =  2.0

     total cpu time spent up to now is        6.7 secs

     total energy              =    -323.79190944 Ry
     estimated scf accuracy    <          5.4E-09 Ry

     total magnetization       =    -0.00 Bohr mag/cell
     absolute magnetization    =     0.00 Bohr mag/cell

     iteration #  7     ecut=    80.00 Ry     beta= 0.70
     Davidson diagonalization with overlap
     ethr =  3.03E-11,  avg # of iterations =  1.7

     Magnetic moment per site  (integrated on atomic sphere of radius R)
     atom   1 (R=0.412)  charge= 14.1973  magn= -0.0000

     total cpu time spent up to now is        7.6 secs

     End of self-consistent calculation

     Number of k-points >= 100: set verbosity='high' to print the bands.

     the Fermi energy is   159.9783 ev

!    total energy              =    -323.79190944 Ry
     estimated scf accuracy    <          4.7E-10 Ry
     smearing contrib. (-TS)   =       0.00000000 Ry
     internal energy E=F+TS    =    -323.79190944 Ry

     The total energy is F=E-TS. E is the sum of the following terms:
     one-electron contribution =     146.98199275 Ry
     hartree contribution      =      17.76667257 Ry
     xc contribution           =     -49.96990732 Ry
     ewald contribution        =    -438.57066743 Ry

     total magnetization       =     0.00 Bohr mag/cell
     absolute magnetization    =     0.00 Bohr mag/cell

     convergence has been achieved in   7 iterations

     Forces acting on atoms (cartesian axes, Ry/au):

     atom    1 type  1   force =     0.00000000    0.00000000    0.00000000

     Total force =     0.000000     Total SCF correction =     0.000000


     Computing stress (Cartesian axis) and pressure

          total   stress  (Ry/bohr**3)                   (kbar)     P=   313200.95
   2.12911204  -0.00001077  -0.00001864       313203.19       -1.58       -2.74
  -0.00001077   2.12910442  -0.00002637           -1.58   313202.07       -3.88
  -0.00001864  -0.00002637   2.12907396           -2.74       -3.88   313197.59


     Writing all to output data dir ./out/pwscf.save/

     init_run     :      0.22s CPU      0.32s WALL (       1 calls)
     electrons    :      5.07s CPU      7.24s WALL (       1 calls)
     forces       :      0.04s CPU      0.07s WALL (       1 calls)
     stress       :      0.08s CPU      0.10s WALL (       1 calls)

     Called by init_run:
     wfcinit      :      0.20s CPU      0.29s WALL (       1 calls)
     potinit      :      0.00s CPU      0.00s WALL (       1 calls)
     hinit0       :      0.02s CPU      0.02s WALL (       1 calls)

     Called by electrons:
     c_bands      :      4.53s CPU      6.48s WALL (       7 calls)
     sum_band     :      0.53s CPU      0.75s WALL (       7 calls)
     v_of_rho     :      0.01s CPU      0.01s WALL (       8 calls)
     mix_rho      :      0.00s CPU      0.00s WALL (       7 calls)

     Called by c_bands:
     init_us_2    :      0.04s CPU      0.06s WALL (    7378 calls)
     init_us_2:cp :      0.04s CPU      0.05s WALL (    7378 calls)
     cegterg      :      4.20s CPU      5.79s WALL (    3038 calls)

     Called by *egterg:
     cdiaghg      :      1.06s CPU      1.40s WALL (    9154 calls)
     h_psi        :      2.73s CPU      3.85s WALL (    9588 calls)
     g_psi        :      0.01s CPU      0.01s WALL (    6116 calls)

     Called by h_psi:
     h_psi:calbec :      0.18s CPU      0.26s WALL (    9588 calls)
     vloc_psi     :      2.43s CPU      3.42s WALL (    9588 calls)
     add_vuspsi   :      0.09s CPU      0.12s WALL (    9588 calls)

     General routines
     calbec       :      0.22s CPU      0.31s WALL (   11758 calls)
     fft          :      0.00s CPU      0.00s WALL (     192 calls)
     ffts         :      0.00s CPU      0.00s WALL (      14 calls)
     fftw         :      2.73s CPU      3.84s WALL (  231586 calls)

     Parallel routines

     PWSCF        :      5.72s CPU      8.63s WALL


   This run was terminated on:  11:37:57  18Jun2023            

=------------------------------------------------------------------------------=
   JOB DONE.
=------------------------------------------------------------------------------=
Note: The following floating-point exceptions are signalling: IEEE_DENORMAL
Note: The following floating-point exceptions are signalling: IEEE_DENORMAL
Note: The following floating-point exceptions are signalling: IEEE_DENORMAL
Note: The following floating-point exceptions are signalling: IEEE_DENORMAL
Note: The following floating-point exceptions are signalling: IEEE_DENORMAL
Note: The following floating-point exceptions are signalling: IEEE_DENORMAL
Note: The following floating-point exceptions are signalling: IEEE_DENORMAL
Note: The following floating-point exceptions are signalling: IEEE_DENORMAL
Note: The following floating-point exceptions are signalling: IEEE_DENORMAL
Note: The following floating-point exceptions are signalling: IEEE_DENORMAL
Note: The following floating-point exceptions are signalling: IEEE_DENORMAL
Note: The following floating-point exceptions are signalling: IEEE_DENORMAL
