Ignoring PCI device with non-16bit domain.
Pass --enable-32bits-pci-domain to configure to support such devices
(warning: it would break the library ABI, don't enable unless really needed).

     Program PWSCF v.7.1 starts on 18Jun2023 at 16: 8:21 

     This program is part of the open-source Quantum ESPRESSO suite
     for quantum simulation of materials; please cite
         "P. Giannozzi et al., J. Phys.:Condens. Matter 21 395502 (2009);
         "P. Giannozzi et al., J. Phys.:Condens. Matter 29 465901 (2017);
         "P. Giannozzi et al., J. Chem. Phys. 152 154105 (2020);
          URL http://www.quantum-espresso.org", 
     in publications or presentations arising from this work. More details at
     http://www.quantum-espresso.org/quote

     Parallel version (MPI), running on    24 processors

     MPI processes distributed on     1 nodes
     9543 MiB available memory on the printing compute node when the environment starts

     Reading input from Ni_monoclinic_sm_atoms.in

     Current dimensions of program PWSCF are:
     Max number of different atomic species (ntypx) = 10
     Max number of k-points (npk) =  40000
     Max angular momentum in pseudopotentials (lmaxx) =  4

     K-points division:     npool     =       2
     R & G space division:  proc/nbgrp/npool/nimage =      12
     Subspace diagonalization in iterative solution of the eigenvalue problem:
     a serial algorithm will be used


     Parallelization info
     --------------------
     sticks:   dense  smooth     PW     G-vecs:    dense   smooth      PW
     Min          83      41     13                 2219      780     141
     Max          84      42     15                 2223      783     143
     Sum        1007     493    159                26649     9389    1701

     Using Slab Decomposition



     bravais-lattice index     =            0
     lattice parameter (alat)  =       5.6099  a.u.
     unit-cell volume          =     149.7705 (a.u.)^3
     number of atoms/cell      =            1
     number of atomic types    =            1
     number of electrons       =        18.00
     number of Kohn-Sham states=           13
     kinetic-energy cutoff     =      60.0000  Ry
     charge density cutoff     =     480.0000  Ry
     scf convergence threshold =      1.0E-06
     mixing beta               =       0.7000
     number of iterations used =            8  TF        mixing
     energy convergence thresh.=      1.0E-05
     force convergence thresh. =      1.0E-04
     press convergence thresh. =      5.0E-01
     Exchange-correlation= PBE
                           (   1   4   3   4   0   0   0)
     nstep                     =           50


     celldm(1)=   5.609878  celldm(2)=   0.000000  celldm(3)=   0.000000
     celldm(4)=   0.000000  celldm(5)=   0.000000  celldm(6)=   0.000000

     crystal axes: (cart. coord. in units of alat)
               a(1) = (   1.000000   0.000000   0.000000 )  
               a(2) = (   0.000000   0.833333   0.000000 )  
               a(3) = (  -0.370521   0.000000   1.017999 )  

     reciprocal axes: (cart. coord. in units 2 pi/alat)
               b(1) = (  1.000000 -0.000000  0.363970 )  
               b(2) = (  0.000000  1.200000 -0.000000 )  
               b(3) = (  0.000000  0.000000  0.982319 )  


     PseudoPot. # 1 for Ni read from file:
     /home/jmgoff/work/automation/qe_pseudos/Ni.upf
     MD5 check sum: caf20d35bef94d268ef04de15446df97
     Pseudo is Ultrasoft + core correction, Zval = 18.0
     Generated using 'atomic' code by A. Dal Corso  v.7.1
     Using radial grid of 1195 points,  6 beta functions with: 
                l(1) =   0
                l(2) =   0
                l(3) =   1
                l(4) =   1
                l(5) =   2
                l(6) =   2
     Q(r) pseudized with 0 coefficients 


     atomic species   valence    mass     pseudopotential
        Ni            18.00    58.69340     Ni( 1.00)

     Starting magnetic structure 
     atomic species   magnetization
        Ni           1.000

     No symmetry found



   Cartesian axes

     site n.     atom                  positions (alat units)
         1           Ni  tau(   1) = (   0.0000000   0.0000000   0.0000000  )

     number of k points=   221  Marzari-Vanderbilt smearing, width (Ry)=  0.0100

     Number of k-points >= 100: set verbosity='high' to print them.

     Dense  grid:    26649 G-vectors     FFT dimensions: (  40,  36,  45)

     Smooth grid:     9389 G-vectors     FFT dimensions: (  27,  24,  30)

     Estimated max dynamical RAM per process >      13.47 MB

     Estimated total dynamical RAM >     310.18 MB
     Generating pointlists ...
     new r_m :   0.3437 (alat units)  1.9284 (a.u.) for type    1

     Initial potential from superposition of free atoms

     starting charge      17.9998, renormalised to      18.0000
     Starting wfcs are   10 randomized atomic wfcs +    3 random wfcs

     total cpu time spent up to now is        0.6 secs

     Self-consistent Calculation

     iteration #  1     ecut=    60.00 Ry     beta= 0.70
     Davidson diagonalization with overlap
     ethr =  1.00E-02,  avg # of iterations =  6.2

     negative rho (up, down):  0.000E+00 1.992E-04

     total cpu time spent up to now is        2.6 secs

     total energy              =    -335.73042137 Ry
     estimated scf accuracy    <       9.10566564 Ry

     total magnetization       =     7.04 Bohr mag/cell
     absolute magnetization    =     7.04 Bohr mag/cell

     iteration #  2     ecut=    60.00 Ry     beta= 0.70
     Davidson diagonalization with overlap
     ethr =  1.00E-02,  avg # of iterations =  2.6

     total cpu time spent up to now is        4.1 secs

     total energy              =    -338.35655472 Ry
     estimated scf accuracy    <      11.28043251 Ry

     total magnetization       =     0.02 Bohr mag/cell
     absolute magnetization    =     0.70 Bohr mag/cell

     iteration #  3     ecut=    60.00 Ry     beta= 0.70
     Davidson diagonalization with overlap
     ethr =  1.00E-02,  avg # of iterations =  2.0

     negative rho (up, down):  0.000E+00 1.305E-03

     total cpu time spent up to now is        5.2 secs

     total energy              =    -339.48883828 Ry
     estimated scf accuracy    <       1.56553903 Ry

     total magnetization       =     1.44 Bohr mag/cell
     absolute magnetization    =     1.62 Bohr mag/cell

     iteration #  4     ecut=    60.00 Ry     beta= 0.70
     Davidson diagonalization with overlap
     ethr =  8.70E-03,  avg # of iterations =  3.0

     total cpu time spent up to now is        6.6 secs

     total energy              =    -333.92044592 Ry
     estimated scf accuracy    <     349.71025080 Ry

     total magnetization       =     1.01 Bohr mag/cell
     absolute magnetization    =    27.11 Bohr mag/cell

     iteration #  5     ecut=    60.00 Ry     beta= 0.70
     Davidson diagonalization with overlap
     ethr =  8.70E-03,  avg # of iterations =  2.4

     total cpu time spent up to now is        7.9 secs

     total energy              =    -339.37698276 Ry
     estimated scf accuracy    <       0.30804411 Ry

     total magnetization       =     1.21 Bohr mag/cell
     absolute magnetization    =     1.73 Bohr mag/cell

     iteration #  6     ecut=    60.00 Ry     beta= 0.70
     Davidson diagonalization with overlap
     ethr =  1.71E-03,  avg # of iterations =  2.1

     total cpu time spent up to now is        9.0 secs

     total energy              =    -339.59386057 Ry
     estimated scf accuracy    <      20.50444280 Ry

     total magnetization       =     0.63 Bohr mag/cell
     absolute magnetization    =     6.36 Bohr mag/cell

     iteration #  7     ecut=    60.00 Ry     beta= 0.70
     Davidson diagonalization with overlap
     ethr =  1.71E-03,  avg # of iterations =  2.0

     total cpu time spent up to now is       10.0 secs

     total energy              =    -339.30591495 Ry
     estimated scf accuracy    <      11.71778623 Ry

     total magnetization       =     0.64 Bohr mag/cell
     absolute magnetization    =     4.53 Bohr mag/cell

     iteration #  8     ecut=    60.00 Ry     beta= 0.70
     Davidson diagonalization with overlap
     ethr =  1.71E-03,  avg # of iterations =  2.0

     total cpu time spent up to now is       11.1 secs

     total energy              =    -339.48661059 Ry
     estimated scf accuracy    <       0.86030590 Ry

     total magnetization       =     0.69 Bohr mag/cell
     absolute magnetization    =     1.55 Bohr mag/cell

     iteration #  9     ecut=    60.00 Ry     beta= 0.70
     Davidson diagonalization with overlap
     ethr =  1.71E-03,  avg # of iterations =  1.0

     total cpu time spent up to now is       12.0 secs

     total energy              =    -339.49117808 Ry
     estimated scf accuracy    <       1.00626513 Ry

     total magnetization       =     0.73 Bohr mag/cell
     absolute magnetization    =     1.78 Bohr mag/cell

     iteration # 10     ecut=    60.00 Ry     beta= 0.70
     Davidson diagonalization with overlap
     ethr =  1.71E-03,  avg # of iterations =  1.0

     total cpu time spent up to now is       12.9 secs

     total energy              =    -339.47396670 Ry
     estimated scf accuracy    <       0.84214088 Ry

     total magnetization       =     0.73 Bohr mag/cell
     absolute magnetization    =     1.65 Bohr mag/cell

     iteration # 11     ecut=    60.00 Ry     beta= 0.70
     Davidson diagonalization with overlap
     ethr =  1.71E-03,  avg # of iterations =  1.0

     total cpu time spent up to now is       13.8 secs

     total energy              =    -339.46518068 Ry
     estimated scf accuracy    <       0.37138984 Ry

     total magnetization       =     0.78 Bohr mag/cell
     absolute magnetization    =     1.33 Bohr mag/cell

     iteration # 12     ecut=    60.00 Ry     beta= 0.70
     Davidson diagonalization with overlap
     ethr =  1.71E-03,  avg # of iterations =  1.0

     total cpu time spent up to now is       14.7 secs

     total energy              =    -339.46433759 Ry
     estimated scf accuracy    <       0.14545453 Ry

     total magnetization       =     0.86 Bohr mag/cell
     absolute magnetization    =     1.12 Bohr mag/cell

     iteration # 13     ecut=    60.00 Ry     beta= 0.70
     Davidson diagonalization with overlap
     ethr =  8.08E-04,  avg # of iterations =  1.0

     total cpu time spent up to now is       15.6 secs

     total energy              =    -339.46849343 Ry
     estimated scf accuracy    <       0.01264271 Ry

     total magnetization       =     0.89 Bohr mag/cell
     absolute magnetization    =     1.05 Bohr mag/cell

     iteration # 14     ecut=    60.00 Ry     beta= 0.70
     Davidson diagonalization with overlap
     ethr =  7.02E-05,  avg # of iterations =  1.2

     total cpu time spent up to now is       16.5 secs

     total energy              =    -339.46888214 Ry
     estimated scf accuracy    <       0.00539155 Ry

     total magnetization       =     0.90 Bohr mag/cell
     absolute magnetization    =     1.04 Bohr mag/cell

     iteration # 15     ecut=    60.00 Ry     beta= 0.70
     Davidson diagonalization with overlap
     ethr =  3.00E-05,  avg # of iterations =  1.3

     total cpu time spent up to now is       17.5 secs

     total energy              =    -339.46923243 Ry
     estimated scf accuracy    <       0.00643106 Ry

     total magnetization       =     0.90 Bohr mag/cell
     absolute magnetization    =     1.03 Bohr mag/cell

     iteration # 16     ecut=    60.00 Ry     beta= 0.70
     Davidson diagonalization with overlap
     ethr =  3.00E-05,  avg # of iterations =  2.0

     total cpu time spent up to now is       18.5 secs

     total energy              =    -339.46807614 Ry
     estimated scf accuracy    <       0.04384902 Ry

     total magnetization       =     0.90 Bohr mag/cell
     absolute magnetization    =     1.10 Bohr mag/cell

     iteration # 17     ecut=    60.00 Ry     beta= 0.70
     Davidson diagonalization with overlap
     ethr =  3.00E-05,  avg # of iterations =  2.0

     total cpu time spent up to now is       19.6 secs

     total energy              =    -339.46885050 Ry
     estimated scf accuracy    <       0.00838713 Ry

     total magnetization       =     0.90 Bohr mag/cell
     absolute magnetization    =     1.04 Bohr mag/cell

     iteration # 18     ecut=    60.00 Ry     beta= 0.70
     Davidson diagonalization with overlap
     ethr =  3.00E-05,  avg # of iterations =  1.0

     total cpu time spent up to now is       20.5 secs

     total energy              =    -339.46885478 Ry
     estimated scf accuracy    <       0.00358601 Ry

     total magnetization       =     0.90 Bohr mag/cell
     absolute magnetization    =     1.03 Bohr mag/cell

     iteration # 19     ecut=    60.00 Ry     beta= 0.70
     Davidson diagonalization with overlap
     ethr =  1.99E-05,  avg # of iterations =  1.0

     total cpu time spent up to now is       21.4 secs

     total energy              =    -339.46901837 Ry
     estimated scf accuracy    <       0.00145134 Ry

     total magnetization       =     0.90 Bohr mag/cell
     absolute magnetization    =     1.03 Bohr mag/cell

     iteration # 20     ecut=    60.00 Ry     beta= 0.70
     Davidson diagonalization with overlap
     ethr =  8.06E-06,  avg # of iterations =  2.0

     total cpu time spent up to now is       22.5 secs

     total energy              =    -339.46790230 Ry
     estimated scf accuracy    <       0.05124021 Ry

     total magnetization       =     0.90 Bohr mag/cell
     absolute magnetization    =     1.12 Bohr mag/cell

     iteration # 21     ecut=    60.00 Ry     beta= 0.70
     Davidson diagonalization with overlap
     ethr =  8.06E-06,  avg # of iterations =  2.0

     total cpu time spent up to now is       23.6 secs

     total energy              =    -339.46886721 Ry
     estimated scf accuracy    <       0.00034770 Ry

     total magnetization       =     0.90 Bohr mag/cell
     absolute magnetization    =     1.03 Bohr mag/cell

     iteration # 22     ecut=    60.00 Ry     beta= 0.70
     Davidson diagonalization with overlap
     ethr =  1.93E-06,  avg # of iterations =  1.1

     total cpu time spent up to now is       24.5 secs

     total energy              =    -339.46888078 Ry
     estimated scf accuracy    <       0.00001915 Ry

     total magnetization       =     0.90 Bohr mag/cell
     absolute magnetization    =     1.03 Bohr mag/cell

     iteration # 23     ecut=    60.00 Ry     beta= 0.70
     Davidson diagonalization with overlap
     ethr =  1.06E-07,  avg # of iterations =  1.0

     total cpu time spent up to now is       25.4 secs

     total energy              =    -339.46888167 Ry
     estimated scf accuracy    <       0.00001698 Ry

     total magnetization       =     0.90 Bohr mag/cell
     absolute magnetization    =     1.03 Bohr mag/cell

     iteration # 24     ecut=    60.00 Ry     beta= 0.70
     Davidson diagonalization with overlap
     ethr =  9.43E-08,  avg # of iterations =  1.0

     total cpu time spent up to now is       26.3 secs

     total energy              =    -339.46888201 Ry
     estimated scf accuracy    <       0.00000176 Ry

     total magnetization       =     0.90 Bohr mag/cell
     absolute magnetization    =     1.03 Bohr mag/cell

     iteration # 25     ecut=    60.00 Ry     beta= 0.70
     Davidson diagonalization with overlap
     ethr =  9.78E-09,  avg # of iterations =  1.5

     Magnetic moment per site  (integrated on atomic sphere of radius R)
     atom   1 (R=0.344)  charge= 16.3785  magn=  0.9626

     total cpu time spent up to now is       27.3 secs

     End of self-consistent calculation

     Number of k-points >= 100: set verbosity='high' to print the bands.

     the Fermi energy is     6.5987 ev

!    total energy              =    -339.46888220 Ry
     estimated scf accuracy    <       0.00000076 Ry
     smearing contrib. (-TS)   =       0.00048632 Ry
     internal energy E=F+TS    =    -339.46936853 Ry

     The total energy is F=E-TS. E is the sum of the following terms:
     one-electron contribution =    -275.75532104 Ry
     hartree contribution      =     142.18736635 Ry
     xc contribution           =     -34.14560250 Ry
     ewald contribution        =    -171.75581134 Ry

     total magnetization       =     0.90 Bohr mag/cell
     absolute magnetization    =     1.03 Bohr mag/cell

     convergence has been achieved in  25 iterations

     Forces acting on atoms (cartesian axes, Ry/au):

     atom    1 type  1   force =     0.00000000    0.00000000    0.00000000

     Total force =     0.000000     Total SCF correction =     0.001206


     Computing stress (Cartesian axis) and pressure

          total   stress  (Ry/bohr**3)                   (kbar)     P=     -191.71
  -0.00144429  -0.00000003   0.00004677         -212.46       -0.00        6.88
  -0.00000003  -0.00116392   0.00000022           -0.00     -171.22        0.03
   0.00004677   0.00000022  -0.00130151            6.88        0.03     -191.46


     BFGS Geometry Optimization
     Energy error            =      0.0E+00 Ry
     Gradient error          =      0.0E+00 Ry/Bohr
     Cell gradient error     =      2.1E+02 kbar

     number of scf cycles    =   1
     number of bfgs steps    =   0

     enthalpy           new  =    -339.4688822046 Ry

     new trust radius        =       0.0884227209 bohr
     new conv_thr            =       0.0000010000 Ry

     new unit-cell volume =    135.60131 a.u.^3 (    20.09404 Ang^3 )
     density =      4.85033 g/cm^3

CELL_PARAMETERS (bohr)
   5.407321688  -0.000003912   0.006559400
  -0.000003260   4.538867914   0.000026266
  -1.996850107   0.000033536   5.522601187

ATOMIC_POSITIONS (crystal)
Ni            0.0000000000        0.0000000000        0.0000000000



     Writing config-only to output data dir ./out/pwscf.save/
     NEW-OLD atomic charge density approx. for the potential
     extrapolated charge   16.11918, renormalised to   18.00000
     Generating pointlists ...
     new r_m :   0.3337 (alat units)  1.8723 (a.u.) for type    1

     total cpu time spent up to now is       27.9 secs

     Self-consistent Calculation

     iteration #  1     ecut=    60.00 Ry     beta= 0.70
     Davidson diagonalization with overlap
     ethr =  1.00E-06,  avg # of iterations =  9.3

     total cpu time spent up to now is       31.3 secs

     total energy              =    -331.54092572 Ry
     estimated scf accuracy    <       9.22337542 Ry

     total magnetization       =     0.00 Bohr mag/cell
     absolute magnetization    =     0.08 Bohr mag/cell

     iteration #  2     ecut=    60.00 Ry     beta= 0.70
     Davidson diagonalization with overlap
     ethr =  1.00E-02,  avg # of iterations =  4.8

     total cpu time spent up to now is       33.1 secs

     total energy              =    -338.84741456 Ry
     estimated scf accuracy    <      41.09921592 Ry

     total magnetization       =     0.04 Bohr mag/cell
     absolute magnetization    =     0.26 Bohr mag/cell

     iteration #  3     ecut=    60.00 Ry     beta= 0.70
     Davidson diagonalization with overlap
     ethr =  1.00E-02,  avg # of iterations =  4.2

     total cpu time spent up to now is       34.7 secs

     total energy              =    -340.52948691 Ry
     estimated scf accuracy    <       9.07716183 Ry

     total magnetization       =     0.37 Bohr mag/cell
     absolute magnetization    =     1.87 Bohr mag/cell

     iteration #  4     ecut=    60.00 Ry     beta= 0.70
     Davidson diagonalization with overlap
     ethr =  1.00E-02,  avg # of iterations =  2.0

     total cpu time spent up to now is       35.8 secs

     total energy              =    -338.88615357 Ry
     estimated scf accuracy    <      21.23552513 Ry

     total magnetization       =     0.40 Bohr mag/cell
     absolute magnetization    =     6.02 Bohr mag/cell

     iteration #  5     ecut=    60.00 Ry     beta= 0.70
     Davidson diagonalization with overlap
     ethr =  1.00E-02,  avg # of iterations =  2.0

     total cpu time spent up to now is       36.9 secs

     total energy              =    -339.52937077 Ry
     estimated scf accuracy    <       0.65078734 Ry

     total magnetization       =     0.72 Bohr mag/cell
     absolute magnetization    =     0.96 Bohr mag/cell

     iteration #  6     ecut=    60.00 Ry     beta= 0.70
     Davidson diagonalization with overlap
     ethr =  3.62E-03,  avg # of iterations =  1.0

     total cpu time spent up to now is       37.8 secs

     total energy              =    -339.55790642 Ry
     estimated scf accuracy    <       0.59995662 Ry

     total magnetization       =     0.77 Bohr mag/cell
     absolute magnetization    =     1.02 Bohr mag/cell

     iteration #  7     ecut=    60.00 Ry     beta= 0.70
     Davidson diagonalization with overlap
     ethr =  3.33E-03,  avg # of iterations =  1.0

     total cpu time spent up to now is       38.7 secs

     total energy              =    -339.56024818 Ry
     estimated scf accuracy    <       0.84894167 Ry

     total magnetization       =     0.85 Bohr mag/cell
     absolute magnetization    =     1.39 Bohr mag/cell

     iteration #  8     ecut=    60.00 Ry     beta= 0.70
     Davidson diagonalization with overlap
     ethr =  3.33E-03,  avg # of iterations =  1.0

     total cpu time spent up to now is       39.6 secs

     total energy              =    -339.55499877 Ry
     estimated scf accuracy    <       0.52049946 Ry

     total magnetization       =     0.87 Bohr mag/cell
     absolute magnetization    =     0.92 Bohr mag/cell

     iteration #  9     ecut=    60.00 Ry     beta= 0.70
     Davidson diagonalization with overlap
     ethr =  2.89E-03,  avg # of iterations =  1.0

     total cpu time spent up to now is       40.5 secs

     total energy              =    -339.55403518 Ry
     estimated scf accuracy    <       0.44832556 Ry

     total magnetization       =     0.94 Bohr mag/cell
     absolute magnetization    =     0.99 Bohr mag/cell

     iteration # 10     ecut=    60.00 Ry     beta= 0.70
     Davidson diagonalization with overlap
     ethr =  2.49E-03,  avg # of iterations =  1.0

     total cpu time spent up to now is       41.4 secs

     total energy              =    -339.45639773 Ry
     estimated scf accuracy    <       0.43592078 Ry

     total magnetization       =     0.95 Bohr mag/cell
     absolute magnetization    =     1.01 Bohr mag/cell

     iteration # 11     ecut=    60.00 Ry     beta= 0.70
     Davidson diagonalization with overlap
     ethr =  2.42E-03,  avg # of iterations =  1.4

     total cpu time spent up to now is       42.4 secs

     total energy              =    -339.48306439 Ry
     estimated scf accuracy    <       0.43617494 Ry

     total magnetization       =     1.02 Bohr mag/cell
     absolute magnetization    =     1.60 Bohr mag/cell

     iteration # 12     ecut=    60.00 Ry     beta= 0.70
     Davidson diagonalization with overlap
     ethr =  2.42E-03,  avg # of iterations =  1.0

     total cpu time spent up to now is       43.2 secs

     total energy              =    -339.48660894 Ry
     estimated scf accuracy    <       0.30252656 Ry

     total magnetization       =     0.89 Bohr mag/cell
     absolute magnetization    =     1.32 Bohr mag/cell

     iteration # 13     ecut=    60.00 Ry     beta= 0.70
     Davidson diagonalization with overlap
     ethr =  1.68E-03,  avg # of iterations =  2.0

     total cpu time spent up to now is       44.3 secs

     total energy              =    -339.53425963 Ry
     estimated scf accuracy    <       4.83863344 Ry

     total magnetization       =     0.24 Bohr mag/cell
     absolute magnetization    =     3.03 Bohr mag/cell

     iteration # 14     ecut=    60.00 Ry     beta= 0.70
     Davidson diagonalization with overlap
     ethr =  1.68E-03,  avg # of iterations =  1.0

     total cpu time spent up to now is       45.2 secs

     total energy              =    -339.52728261 Ry
     estimated scf accuracy    <       5.04393356 Ry

     total magnetization       =    -0.34 Bohr mag/cell
     absolute magnetization    =     3.04 Bohr mag/cell

     iteration # 15     ecut=    60.00 Ry     beta= 0.70
     Davidson diagonalization with overlap
     ethr =  1.68E-03,  avg # of iterations =  1.0

     total cpu time spent up to now is       46.1 secs

     total energy              =    -339.52086910 Ry
     estimated scf accuracy    <       4.91006929 Ry

     total magnetization       =    -0.77 Bohr mag/cell
     absolute magnetization    =     3.21 Bohr mag/cell

     iteration # 16     ecut=    60.00 Ry     beta= 0.70
     Davidson diagonalization with overlap
     ethr =  1.68E-03,  avg # of iterations =  1.5

     total cpu time spent up to now is       47.1 secs

     total energy              =    -339.64704376 Ry
     estimated scf accuracy    <       5.67519534 Ry

     total magnetization       =    -0.06 Bohr mag/cell
     absolute magnetization    =     3.24 Bohr mag/cell

     iteration # 17     ecut=    60.00 Ry     beta= 0.70
     Davidson diagonalization with overlap
     ethr =  1.68E-03,  avg # of iterations =  2.0

     total cpu time spent up to now is       48.2 secs

     total energy              =    -339.30901033 Ry
     estimated scf accuracy    <      23.24017090 Ry

     total magnetization       =     0.51 Bohr mag/cell
     absolute magnetization    =     6.79 Bohr mag/cell

     iteration # 18     ecut=    60.00 Ry     beta= 0.70
     Davidson diagonalization with overlap
     ethr =  1.68E-03,  avg # of iterations =  2.0

     total cpu time spent up to now is       49.4 secs

     total energy              =    -339.27703235 Ry
     estimated scf accuracy    <      11.17575391 Ry

     total magnetization       =     1.05 Bohr mag/cell
     absolute magnetization    =     5.05 Bohr mag/cell

     iteration # 19     ecut=    60.00 Ry     beta= 0.70
     Davidson diagonalization with overlap
     ethr =  1.68E-03,  avg # of iterations =  2.0

     total cpu time spent up to now is       50.5 secs

     total energy              =    -339.46390527 Ry
     estimated scf accuracy    <       0.81316620 Ry

     total magnetization       =     0.98 Bohr mag/cell
     absolute magnetization    =     1.74 Bohr mag/cell

     iteration # 20     ecut=    60.00 Ry     beta= 0.70
     Davidson diagonalization with overlap
     ethr =  1.68E-03,  avg # of iterations =  1.5

     total cpu time spent up to now is       51.6 secs

     total energy              =    -339.47040364 Ry
     estimated scf accuracy    <       0.54975801 Ry

     total magnetization       =     0.93 Bohr mag/cell
     absolute magnetization    =     1.54 Bohr mag/cell

     iteration # 21     ecut=    60.00 Ry     beta= 0.70
     Davidson diagonalization with overlap
     ethr =  1.68E-03,  avg # of iterations =  1.0

     total cpu time spent up to now is       52.5 secs

     total energy              =    -339.48392409 Ry
     estimated scf accuracy    <       0.05960030 Ry

     total magnetization       =     0.99 Bohr mag/cell
     absolute magnetization    =     1.22 Bohr mag/cell

     iteration # 22     ecut=    60.00 Ry     beta= 0.70
     Davidson diagonalization with overlap
     ethr =  3.31E-04,  avg # of iterations =  1.0

     total cpu time spent up to now is       53.4 secs

     total energy              =    -339.48652944 Ry
     estimated scf accuracy    <       0.03372813 Ry

     total magnetization       =     0.99 Bohr mag/cell
     absolute magnetization    =     1.19 Bohr mag/cell

     iteration # 23     ecut=    60.00 Ry     beta= 0.70
     Davidson diagonalization with overlap
     ethr =  1.87E-04,  avg # of iterations =  1.0

     total cpu time spent up to now is       54.2 secs

     total energy              =    -339.48641633 Ry
     estimated scf accuracy    <       0.07795762 Ry

     total magnetization       =     0.96 Bohr mag/cell
     absolute magnetization    =     1.22 Bohr mag/cell

     iteration # 24     ecut=    60.00 Ry     beta= 0.70
     Davidson diagonalization with overlap
     ethr =  1.87E-04,  avg # of iterations =  1.5

     total cpu time spent up to now is       55.3 secs

     total energy              =    -339.48336662 Ry
     estimated scf accuracy    <       0.11631559 Ry

     total magnetization       =     0.87 Bohr mag/cell
     absolute magnetization    =     1.12 Bohr mag/cell

     iteration # 25     ecut=    60.00 Ry     beta= 0.70
     Davidson diagonalization with overlap
     ethr =  1.87E-04,  avg # of iterations =  1.7

     total cpu time spent up to now is       56.3 secs

     total energy              =    -339.48446282 Ry
     estimated scf accuracy    <       0.11765878 Ry

     total magnetization       =     0.84 Bohr mag/cell
     absolute magnetization    =     1.05 Bohr mag/cell

     iteration # 26     ecut=    60.00 Ry     beta= 0.70
     Davidson diagonalization with overlap
     ethr =  1.87E-04,  avg # of iterations =  1.5

     total cpu time spent up to now is       57.4 secs

     total energy              =    -339.48761203 Ry
     estimated scf accuracy    <       0.00199769 Ry

     total magnetization       =     0.89 Bohr mag/cell
     absolute magnetization    =     1.02 Bohr mag/cell

     iteration # 27     ecut=    60.00 Ry     beta= 0.70
     Davidson diagonalization with overlap
     ethr =  1.11E-05,  avg # of iterations =  2.4

     total cpu time spent up to now is       58.5 secs

     total energy              =    -339.48625362 Ry
     estimated scf accuracy    <       0.09278304 Ry

     total magnetization       =     0.89 Bohr mag/cell
     absolute magnetization    =     1.15 Bohr mag/cell

     iteration # 28     ecut=    60.00 Ry     beta= 0.70
     Davidson diagonalization with overlap
     ethr =  1.11E-05,  avg # of iterations =  2.0

     total cpu time spent up to now is       59.6 secs

     total energy              =    -339.48769728 Ry
     estimated scf accuracy    <       0.00176077 Ry

     total magnetization       =     0.89 Bohr mag/cell
     absolute magnetization    =     1.01 Bohr mag/cell

     iteration # 29     ecut=    60.00 Ry     beta= 0.70
     Davidson diagonalization with overlap
     ethr =  9.78E-06,  avg # of iterations =  1.1

     total cpu time spent up to now is       60.6 secs

     total energy              =    -339.48780499 Ry
     estimated scf accuracy    <       0.00043716 Ry

     total magnetization       =     0.89 Bohr mag/cell
     absolute magnetization    =     1.01 Bohr mag/cell

     iteration # 30     ecut=    60.00 Ry     beta= 0.70
     Davidson diagonalization with overlap
     ethr =  2.43E-06,  avg # of iterations =  1.5

     total cpu time spent up to now is       61.5 secs

     total energy              =    -339.48782319 Ry
     estimated scf accuracy    <       0.00028460 Ry

     total magnetization       =     0.89 Bohr mag/cell
     absolute magnetization    =     1.01 Bohr mag/cell

     iteration # 31     ecut=    60.00 Ry     beta= 0.70
     Davidson diagonalization with overlap
     ethr =  1.58E-06,  avg # of iterations =  1.5

     total cpu time spent up to now is       62.5 secs

     total energy              =    -339.48783247 Ry
     estimated scf accuracy    <       0.00016990 Ry

     total magnetization       =     0.89 Bohr mag/cell
     absolute magnetization    =     1.01 Bohr mag/cell

     iteration # 32     ecut=    60.00 Ry     beta= 0.70
     Davidson diagonalization with overlap
     ethr =  9.44E-07,  avg # of iterations =  1.0

     total cpu time spent up to now is       63.4 secs

     total energy              =    -339.48782210 Ry
     estimated scf accuracy    <       0.00037694 Ry

     total magnetization       =     0.89 Bohr mag/cell
     absolute magnetization    =     1.01 Bohr mag/cell

     iteration # 33     ecut=    60.00 Ry     beta= 0.70
     Davidson diagonalization with overlap
     ethr =  9.44E-07,  avg # of iterations =  1.0

     total cpu time spent up to now is       64.3 secs

     total energy              =    -339.48783006 Ry
     estimated scf accuracy    <       0.00000393 Ry

     total magnetization       =     0.89 Bohr mag/cell
     absolute magnetization    =     1.01 Bohr mag/cell

     iteration # 34     ecut=    60.00 Ry     beta= 0.70
     Davidson diagonalization with overlap
     ethr =  2.18E-08,  avg # of iterations =  1.0

     total cpu time spent up to now is       65.2 secs

     total energy              =    -339.48783053 Ry
     estimated scf accuracy    <       0.00000205 Ry

     total magnetization       =     0.89 Bohr mag/cell
     absolute magnetization    =     1.01 Bohr mag/cell

     iteration # 35     ecut=    60.00 Ry     beta= 0.70
     Davidson diagonalization with overlap
     ethr =  1.14E-08,  avg # of iterations =  1.5

     total cpu time spent up to now is       66.3 secs

     total energy              =    -339.48783064 Ry
     estimated scf accuracy    <       0.00000446 Ry

     total magnetization       =     0.89 Bohr mag/cell
     absolute magnetization    =     1.01 Bohr mag/cell

     iteration # 36     ecut=    60.00 Ry     beta= 0.70
     Davidson diagonalization with overlap
     ethr =  1.14E-08,  avg # of iterations =  1.0

     total cpu time spent up to now is       67.2 secs

     total energy              =    -339.48783050 Ry
     estimated scf accuracy    <       0.00000560 Ry

     total magnetization       =     0.89 Bohr mag/cell
     absolute magnetization    =     1.01 Bohr mag/cell

     iteration # 37     ecut=    60.00 Ry     beta= 0.70
     Davidson diagonalization with overlap
     ethr =  1.14E-08,  avg # of iterations =  1.5

     total cpu time spent up to now is       68.2 secs

     total energy              =    -339.48783062 Ry
     estimated scf accuracy    <       0.00000188 Ry

     total magnetization       =     0.89 Bohr mag/cell
     absolute magnetization    =     1.01 Bohr mag/cell

     iteration # 38     ecut=    60.00 Ry     beta= 0.70
     Davidson diagonalization with overlap
     ethr =  1.04E-08,  avg # of iterations =  1.0

     total cpu time spent up to now is       69.1 secs

     total energy              =    -339.48783065 Ry
     estimated scf accuracy    <       0.00000151 Ry

     total magnetization       =     0.89 Bohr mag/cell
     absolute magnetization    =     1.01 Bohr mag/cell

     iteration # 39     ecut=    60.00 Ry     beta= 0.70
     Davidson diagonalization with overlap
     ethr =  8.39E-09,  avg # of iterations =  1.0

     total cpu time spent up to now is       70.0 secs

     total energy              =    -339.48783066 Ry
     estimated scf accuracy    <       0.00000417 Ry

     total magnetization       =     0.89 Bohr mag/cell
     absolute magnetization    =     1.01 Bohr mag/cell

     iteration # 40     ecut=    60.00 Ry     beta= 0.70
     Davidson diagonalization with overlap
     ethr =  8.39E-09,  avg # of iterations =  1.0

     total cpu time spent up to now is       70.8 secs

     total energy              =    -339.48783064 Ry
     estimated scf accuracy    <       0.00000433 Ry

     total magnetization       =     0.89 Bohr mag/cell
     absolute magnetization    =     1.01 Bohr mag/cell

     iteration # 41     ecut=    60.00 Ry     beta= 0.70
     Davidson diagonalization with overlap
     ethr =  8.39E-09,  avg # of iterations =  1.5

     total cpu time spent up to now is       71.9 secs

     total energy              =    -339.48783055 Ry
     estimated scf accuracy    <       0.00000801 Ry

     total magnetization       =     0.89 Bohr mag/cell
     absolute magnetization    =     1.01 Bohr mag/cell

     iteration # 42     ecut=    60.00 Ry     beta= 0.70
     Davidson diagonalization with overlap
     ethr =  8.39E-09,  avg # of iterations =  1.2

     total cpu time spent up to now is       72.8 secs

     total energy              =    -339.48783070 Ry
     estimated scf accuracy    <       0.00000200 Ry

     total magnetization       =     0.89 Bohr mag/cell
     absolute magnetization    =     1.01 Bohr mag/cell

     iteration # 43     ecut=    60.00 Ry     beta= 0.70
     Davidson diagonalization with overlap
     ethr =  8.39E-09,  avg # of iterations =  1.5

     total cpu time spent up to now is       73.8 secs

     total energy              =    -339.48783039 Ry
     estimated scf accuracy    <       0.00001149 Ry

     total magnetization       =     0.89 Bohr mag/cell
     absolute magnetization    =     1.01 Bohr mag/cell

     iteration # 44     ecut=    60.00 Ry     beta= 0.70
     Davidson diagonalization with overlap
     ethr =  8.39E-09,  avg # of iterations =  2.0

     Magnetic moment per site  (integrated on atomic sphere of radius R)
     atom   1 (R=0.334)  charge= 16.2848  magn=  0.9456

     total cpu time spent up to now is       74.9 secs

     End of self-consistent calculation

     Number of k-points >= 100: set verbosity='high' to print the bands.

     the Fermi energy is     7.7465 ev

!    total energy              =    -339.48783066 Ry
     estimated scf accuracy    <       0.00000006 Ry
     smearing contrib. (-TS)   =       0.00052442 Ry
     internal energy E=F+TS    =    -339.48835508 Ry

     The total energy is F=E-TS. E is the sum of the following terms:
     one-electron contribution =    -265.41975968 Ry
     hartree contribution      =     137.72494799 Ry
     xc contribution           =     -34.16249012 Ry
     ewald contribution        =    -177.63105327 Ry

     total magnetization       =     0.89 Bohr mag/cell
     absolute magnetization    =     1.01 Bohr mag/cell

     convergence has been achieved in  44 iterations

     Forces acting on atoms (cartesian axes, Ry/au):

     atom    1 type  1   force =     0.00000000    0.00000000    0.00000000

     Total force =     0.000000     Total SCF correction =     0.000107


     Computing stress (Cartesian axis) and pressure

          total   stress  (Ry/bohr**3)                   (kbar)     P=     -197.38
  -0.00154611   0.00000005   0.00003793         -227.44        0.01        5.58
   0.00000005  -0.00098280  -0.00000000            0.01     -144.57       -0.00
   0.00003793  -0.00000000  -0.00149643            5.58       -0.00     -220.13

     Energy error            =      1.9E-02 Ry
     Gradient error          =      0.0E+00 Ry/Bohr
     Cell gradient error     =      2.3E+02 kbar

     number of scf cycles    =   2
     number of bfgs steps    =   1

     enthalpy           old  =    -339.4688822046 Ry
     enthalpy           new  =    -339.4878306635 Ry

     CASE: enthalpy          _new < enthalpy          _old


     WARNING: bfgs curvature condition failed, Theta= 0.824
     new trust radius        =       0.1309418027 bohr
     new conv_thr            =       0.0000000010 Ry

     new unit-cell volume =    116.33320 a.u.^3 (    17.23880 Ang^3 )
     density =      5.65368 g/cm^3

CELL_PARAMETERS (bohr)
   5.103461894  -0.000004444   0.015660938
  -0.000003760   4.350906582   0.000051703
  -1.875004058   0.000064585   5.233374636

ATOMIC_POSITIONS (crystal)
Ni            0.0000000000        0.0000000000        0.0000000000



     Writing config-only to output data dir ./out/pwscf.save/
     NEW-OLD atomic charge density approx. for the potential

     Check: negative core charge=   -0.000001
     extrapolated charge   15.01873, renormalised to   18.00000
     Generating pointlists ...
     new r_m :   0.3199 (alat units)  1.7947 (a.u.) for type    1

     total cpu time spent up to now is       75.5 secs

     Self-consistent Calculation

     iteration #  1     ecut=    60.00 Ry     beta= 0.70
     Davidson diagonalization with overlap
     ethr =  1.00E-06,  avg # of iterations =  9.7

     total cpu time spent up to now is       78.8 secs

     total energy              =    -326.26306141 Ry
     estimated scf accuracy    <      15.10374414 Ry

     total magnetization       =     0.00 Bohr mag/cell
     absolute magnetization    =     0.05 Bohr mag/cell

     iteration #  2     ecut=    60.00 Ry     beta= 0.70
     Davidson diagonalization with overlap
     ethr =  1.00E-02,  avg # of iterations =  4.7

     total cpu time spent up to now is       80.7 secs

     total energy              =    -339.19717358 Ry
     estimated scf accuracy    <      47.31809120 Ry

     total magnetization       =     0.04 Bohr mag/cell
     absolute magnetization    =     0.10 Bohr mag/cell

     iteration #  3     ecut=    60.00 Ry     beta= 0.70
     Davidson diagonalization with overlap
     ethr =  1.00E-02,  avg # of iterations =  4.5

     total cpu time spent up to now is       82.3 secs

     total energy              =    -339.11622053 Ry
     estimated scf accuracy    <      10.17237255 Ry

     total magnetization       =     0.24 Bohr mag/cell
     absolute magnetization    =     0.58 Bohr mag/cell

     iteration #  4     ecut=    60.00 Ry     beta= 0.70
     Davidson diagonalization with overlap
     ethr =  1.00E-02,  avg # of iterations =  2.1

     total cpu time spent up to now is       83.5 secs

     total energy              =    -338.92694959 Ry
     estimated scf accuracy    <      40.01657354 Ry

     total magnetization       =     0.22 Bohr mag/cell
     absolute magnetization    =     9.27 Bohr mag/cell

     iteration #  5     ecut=    60.00 Ry     beta= 0.70
     Davidson diagonalization with overlap
     ethr =  1.00E-02,  avg # of iterations =  2.0

     total cpu time spent up to now is       84.6 secs

     total energy              =    -339.59112776 Ry
     estimated scf accuracy    <       0.36035113 Ry

     total magnetization       =     0.54 Bohr mag/cell
     absolute magnetization    =     0.75 Bohr mag/cell

     iteration #  6     ecut=    60.00 Ry     beta= 0.70
     Davidson diagonalization with overlap
     ethr =  2.00E-03,  avg # of iterations =  2.1

     total cpu time spent up to now is       85.6 secs

     total energy              =    -339.60779922 Ry
     estimated scf accuracy    <       1.95001429 Ry

     total magnetization       =     0.61 Bohr mag/cell
     absolute magnetization    =     2.03 Bohr mag/cell

     iteration #  7     ecut=    60.00 Ry     beta= 0.70
     Davidson diagonalization with overlap
     ethr =  2.00E-03,  avg # of iterations =  2.0

     total cpu time spent up to now is       86.6 secs

     total energy              =    -339.64873015 Ry
     estimated scf accuracy    <       0.80648554 Ry

     total magnetization       =     0.66 Bohr mag/cell
     absolute magnetization    =     0.82 Bohr mag/cell

     iteration #  8     ecut=    60.00 Ry     beta= 0.70
     Davidson diagonalization with overlap
     ethr =  2.00E-03,  avg # of iterations =  1.0

     total cpu time spent up to now is       87.5 secs

     total energy              =    -339.62514676 Ry
     estimated scf accuracy    <       0.76505851 Ry

     total magnetization       =     0.72 Bohr mag/cell
     absolute magnetization    =     0.75 Bohr mag/cell

     iteration #  9     ecut=    60.00 Ry     beta= 0.70
     Davidson diagonalization with overlap
     ethr =  2.00E-03,  avg # of iterations =  1.0

     total cpu time spent up to now is       88.4 secs

     total energy              =    -339.62295103 Ry
     estimated scf accuracy    <       0.61648868 Ry

     total magnetization       =     0.78 Bohr mag/cell
     absolute magnetization    =     0.82 Bohr mag/cell

     iteration # 10     ecut=    60.00 Ry     beta= 0.70
     Davidson diagonalization with overlap
     ethr =  2.00E-03,  avg # of iterations =  1.0

     total cpu time spent up to now is       89.3 secs

     total energy              =    -339.49544130 Ry
     estimated scf accuracy    <       0.59669603 Ry

     total magnetization       =     0.79 Bohr mag/cell
     absolute magnetization    =     0.84 Bohr mag/cell

     iteration # 11     ecut=    60.00 Ry     beta= 0.70
     Davidson diagonalization with overlap
     ethr =  2.00E-03,  avg # of iterations =  2.0

     total cpu time spent up to now is       90.4 secs

     total energy              =    -339.49030848 Ry
     estimated scf accuracy    <       1.13162419 Ry

     total magnetization       =     1.03 Bohr mag/cell
     absolute magnetization    =     1.98 Bohr mag/cell

     iteration # 12     ecut=    60.00 Ry     beta= 0.70
     Davidson diagonalization with overlap
     ethr =  2.00E-03,  avg # of iterations =  1.3

     total cpu time spent up to now is       91.3 secs

     total energy              =    -339.50533240 Ry
     estimated scf accuracy    <       0.41882833 Ry

     total magnetization       =     0.83 Bohr mag/cell
     absolute magnetization    =     1.25 Bohr mag/cell

     iteration # 13     ecut=    60.00 Ry     beta= 0.70
     Davidson diagonalization with overlap
     ethr =  2.00E-03,  avg # of iterations =  1.5

     total cpu time spent up to now is       92.4 secs

     total energy              =    -339.50785175 Ry
     estimated scf accuracy    <       0.37016639 Ry

     total magnetization       =     0.78 Bohr mag/cell
     absolute magnetization    =     0.89 Bohr mag/cell

     iteration # 14     ecut=    60.00 Ry     beta= 0.70
     Davidson diagonalization with overlap
     ethr =  2.00E-03,  avg # of iterations =  1.1

     total cpu time spent up to now is       93.3 secs

     total energy              =    -339.51193102 Ry
     estimated scf accuracy    <       0.31019833 Ry

     total magnetization       =     0.80 Bohr mag/cell
     absolute magnetization    =     1.28 Bohr mag/cell

     iteration # 15     ecut=    60.00 Ry     beta= 0.70
     Davidson diagonalization with overlap
     ethr =  1.72E-03,  avg # of iterations =  1.0

     total cpu time spent up to now is       94.2 secs

     total energy              =    -339.51342167 Ry
     estimated scf accuracy    <       0.07685491 Ry

     total magnetization       =     0.86 Bohr mag/cell
     absolute magnetization    =     1.08 Bohr mag/cell

     iteration # 16     ecut=    60.00 Ry     beta= 0.70
     Davidson diagonalization with overlap
     ethr =  4.27E-04,  avg # of iterations =  1.2

     total cpu time spent up to now is       95.1 secs

     total energy              =    -339.51527039 Ry
     estimated scf accuracy    <       0.01874833 Ry

     total magnetization       =     0.87 Bohr mag/cell
     absolute magnetization    =     0.98 Bohr mag/cell

     iteration # 17     ecut=    60.00 Ry     beta= 0.70
     Davidson diagonalization with overlap
     ethr =  1.04E-04,  avg # of iterations =  1.3

     total cpu time spent up to now is       96.0 secs

     total energy              =    -339.51497474 Ry
     estimated scf accuracy    <       0.02141441 Ry

     total magnetization       =     0.87 Bohr mag/cell
     absolute magnetization    =     0.99 Bohr mag/cell

     iteration # 18     ecut=    60.00 Ry     beta= 0.70
     Davidson diagonalization with overlap
     ethr =  1.04E-04,  avg # of iterations =  1.0

     total cpu time spent up to now is       96.9 secs

     total energy              =    -339.51494017 Ry
     estimated scf accuracy    <       0.00890207 Ry

     total magnetization       =     0.86 Bohr mag/cell
     absolute magnetization    =     0.96 Bohr mag/cell

     iteration # 19     ecut=    60.00 Ry     beta= 0.70
     Davidson diagonalization with overlap
     ethr =  4.95E-05,  avg # of iterations =  1.2

     total cpu time spent up to now is       97.8 secs

     total energy              =    -339.51525297 Ry
     estimated scf accuracy    <       0.00022193 Ry

     total magnetization       =     0.87 Bohr mag/cell
     absolute magnetization    =     0.98 Bohr mag/cell

     iteration # 20     ecut=    60.00 Ry     beta= 0.70
     Davidson diagonalization with overlap
     ethr =  1.23E-06,  avg # of iterations =  2.1

     total cpu time spent up to now is       98.8 secs

     total energy              =    -339.51526517 Ry
     estimated scf accuracy    <       0.00010112 Ry

     total magnetization       =     0.87 Bohr mag/cell
     absolute magnetization    =     0.98 Bohr mag/cell

     iteration # 21     ecut=    60.00 Ry     beta= 0.70
     Davidson diagonalization with overlap
     ethr =  5.62E-07,  avg # of iterations =  1.0

     total cpu time spent up to now is       99.7 secs

     total energy              =    -339.51527008 Ry
     estimated scf accuracy    <       0.00006611 Ry

     total magnetization       =     0.87 Bohr mag/cell
     absolute magnetization    =     0.98 Bohr mag/cell

     iteration # 22     ecut=    60.00 Ry     beta= 0.70
     Davidson diagonalization with overlap
     ethr =  3.67E-07,  avg # of iterations =  1.0

     total cpu time spent up to now is      100.6 secs

     total energy              =    -339.51526703 Ry
     estimated scf accuracy    <       0.00019687 Ry

     total magnetization       =     0.87 Bohr mag/cell
     absolute magnetization    =     0.98 Bohr mag/cell

     iteration # 23     ecut=    60.00 Ry     beta= 0.70
     Davidson diagonalization with overlap
     ethr =  3.67E-07,  avg # of iterations =  1.2

     total cpu time spent up to now is      101.6 secs

     total energy              =    -339.51526770 Ry
     estimated scf accuracy    <       0.00006597 Ry

     total magnetization       =     0.87 Bohr mag/cell
     absolute magnetization    =     0.98 Bohr mag/cell

     iteration # 24     ecut=    60.00 Ry     beta= 0.70
     Davidson diagonalization with overlap
     ethr =  3.66E-07,  avg # of iterations =  1.0

     total cpu time spent up to now is      102.4 secs

     total energy              =    -339.51526947 Ry
     estimated scf accuracy    <       0.00000228 Ry

     total magnetization       =     0.87 Bohr mag/cell
     absolute magnetization    =     0.98 Bohr mag/cell

     iteration # 25     ecut=    60.00 Ry     beta= 0.70
     Davidson diagonalization with overlap
     ethr =  1.27E-08,  avg # of iterations =  1.0

     total cpu time spent up to now is      103.3 secs

     total energy              =    -339.51526962 Ry
     estimated scf accuracy    <       0.00000107 Ry

     total magnetization       =     0.87 Bohr mag/cell
     absolute magnetization    =     0.98 Bohr mag/cell

     iteration # 26     ecut=    60.00 Ry     beta= 0.70
     Davidson diagonalization with overlap
     ethr =  5.95E-09,  avg # of iterations =  1.0

     total cpu time spent up to now is      104.2 secs

     total energy              =    -339.51526952 Ry
     estimated scf accuracy    <       0.00000408 Ry

     total magnetization       =     0.87 Bohr mag/cell
     absolute magnetization    =     0.98 Bohr mag/cell

     iteration # 27     ecut=    60.00 Ry     beta= 0.70
     Davidson diagonalization with overlap
     ethr =  5.95E-09,  avg # of iterations =  2.0

     total cpu time spent up to now is      105.3 secs

     total energy              =    -339.51526963 Ry
     estimated scf accuracy    <       0.00000195 Ry

     total magnetization       =     0.87 Bohr mag/cell
     absolute magnetization    =     0.98 Bohr mag/cell

     iteration # 28     ecut=    60.00 Ry     beta= 0.70
     Davidson diagonalization with overlap
     ethr =  5.95E-09,  avg # of iterations =  1.0

     total cpu time spent up to now is      106.2 secs

     total energy              =    -339.51526958 Ry
     estimated scf accuracy    <       0.00000273 Ry

     total magnetization       =     0.87 Bohr mag/cell
     absolute magnetization    =     0.98 Bohr mag/cell

     iteration # 29     ecut=    60.00 Ry     beta= 0.70
     Davidson diagonalization with overlap
     ethr =  5.95E-09,  avg # of iterations =  1.0

     total cpu time spent up to now is      107.1 secs

     total energy              =    -339.51526959 Ry
     estimated scf accuracy    <       0.00000079 Ry

     total magnetization       =     0.87 Bohr mag/cell
     absolute magnetization    =     0.98 Bohr mag/cell

     iteration # 30     ecut=    60.00 Ry     beta= 0.70
     Davidson diagonalization with overlap
     ethr =  4.39E-09,  avg # of iterations =  1.0

     total cpu time spent up to now is      107.9 secs

     total energy              =    -339.51526961 Ry
     estimated scf accuracy    <       0.00000003 Ry

     total magnetization       =     0.87 Bohr mag/cell
     absolute magnetization    =     0.98 Bohr mag/cell

     iteration # 31     ecut=    60.00 Ry     beta= 0.70
     Davidson diagonalization with overlap
     ethr =  1.91E-10,  avg # of iterations =  1.4

     total cpu time spent up to now is      108.9 secs

     total energy              =    -339.51526962 Ry
     estimated scf accuracy    <       0.00000003 Ry

     total magnetization       =     0.87 Bohr mag/cell
     absolute magnetization    =     0.98 Bohr mag/cell

     iteration # 32     ecut=    60.00 Ry     beta= 0.70
     Davidson diagonalization with overlap
     ethr =  1.51E-10,  avg # of iterations =  1.9

     total cpu time spent up to now is      109.9 secs

     total energy              =    -339.51526961 Ry
     estimated scf accuracy    <       0.00000018 Ry

     total magnetization       =     0.87 Bohr mag/cell
     absolute magnetization    =     0.98 Bohr mag/cell

     iteration # 33     ecut=    60.00 Ry     beta= 0.70
     Davidson diagonalization with overlap
     ethr =  1.51E-10,  avg # of iterations =  2.0

     total cpu time spent up to now is      111.0 secs

     total energy              =    -339.51526961 Ry
     estimated scf accuracy    <       0.00000018 Ry

     total magnetization       =     0.87 Bohr mag/cell
     absolute magnetization    =     0.98 Bohr mag/cell

     iteration # 34     ecut=    60.00 Ry     beta= 0.70
     Davidson diagonalization with overlap
     ethr =  1.51E-10,  avg # of iterations =  1.5

     total cpu time spent up to now is      112.1 secs

     total energy              =    -339.51526961 Ry
     estimated scf accuracy    <          1.8E-09 Ry

     total magnetization       =     0.87 Bohr mag/cell
     absolute magnetization    =     0.98 Bohr mag/cell

     iteration # 35     ecut=    60.00 Ry     beta= 0.70
     Davidson diagonalization with overlap
     ethr =  9.85E-12,  avg # of iterations =  1.0

     Magnetic moment per site  (integrated on atomic sphere of radius R)
     atom   1 (R=0.320)  charge= 16.1462  magn=  0.9211

     total cpu time spent up to now is      113.0 secs

     End of self-consistent calculation

     Number of k-points >= 100: set verbosity='high' to print the bands.

     the Fermi energy is     9.7637 ev

!    total energy              =    -339.51526962 Ry
     estimated scf accuracy    <          3.3E-10 Ry
     smearing contrib. (-TS)   =       0.00040507 Ry
     internal energy E=F+TS    =    -339.51567468 Ry

     The total energy is F=E-TS. E is the sum of the following terms:
     one-electron contribution =    -248.77002617 Ry
     hartree contribution      =     130.64839223 Ry
     xc contribution           =     -34.19992608 Ry
     ewald contribution        =    -187.19411467 Ry

     total magnetization       =     0.87 Bohr mag/cell
     absolute magnetization    =     0.98 Bohr mag/cell

     convergence has been achieved in  35 iterations

     Forces acting on atoms (cartesian axes, Ry/au):

     atom    1 type  1   force =     0.00000000    0.00000000    0.00000000

     Total force =     0.000000     Total SCF correction =     0.000029


     Computing stress (Cartesian axis) and pressure

          total   stress  (Ry/bohr**3)                   (kbar)     P=     -203.90
  -0.00169652  -0.00000001   0.00001021         -249.57       -0.00        1.50
  -0.00000001  -0.00054839   0.00000003           -0.00      -80.67        0.00
   0.00001021   0.00000003  -0.00191325            1.50        0.00     -281.45

     Energy error            =      2.7E-02 Ry
     Gradient error          =      0.0E+00 Ry/Bohr
     Cell gradient error     =      2.8E+02 kbar

     number of scf cycles    =   3
     number of bfgs steps    =   2

     enthalpy           old  =    -339.4878306635 Ry
     enthalpy           new  =    -339.5152696150 Ry

     CASE: enthalpy          _new < enthalpy          _old

     new trust radius        =       0.1927779955 bohr
     new conv_thr            =       0.0000000010 Ry

     new unit-cell volume =     91.39516 a.u.^3 (    13.54337 Ang^3 )
     density =      7.19634 g/cm^3

CELL_PARAMETERS (bohr)
   4.647583967  -0.000013351   0.026670958
  -0.000011231   4.110047645   0.000099043
  -1.694960700   0.000124144   4.774911234

ATOMIC_POSITIONS (crystal)
Ni            0.0000000000        0.0000000000        0.0000000000



     Writing config-only to output data dir ./out/pwscf.save/
     NEW-OLD atomic charge density approx. for the potential
     extrapolated charge   13.08860, renormalised to   18.00000
     Generating pointlists ...
     new r_m :   0.3022 (alat units)  1.6954 (a.u.) for type    1

     total cpu time spent up to now is      113.6 secs

     Self-consistent Calculation

     iteration #  1     ecut=    60.00 Ry     beta= 0.70
     Davidson diagonalization with overlap
     ethr =  1.00E-06,  avg # of iterations =  9.9

     total cpu time spent up to now is      117.0 secs

     total energy              =    -316.36254989 Ry
     estimated scf accuracy    <      27.68006744 Ry

     total magnetization       =    -0.00 Bohr mag/cell
     absolute magnetization    =     0.04 Bohr mag/cell

     iteration #  2     ecut=    60.00 Ry     beta= 0.70
     Davidson diagonalization with overlap
     ethr =  1.00E-02,  avg # of iterations =  4.2

     total cpu time spent up to now is      118.8 secs

     total energy              =    -339.11814908 Ry
     estimated scf accuracy    <      52.14708753 Ry

     total magnetization       =     0.03 Bohr mag/cell
     absolute magnetization    =     0.05 Bohr mag/cell

     iteration #  3     ecut=    60.00 Ry     beta= 0.70
     Davidson diagonalization with overlap
     ethr =  1.00E-02,  avg # of iterations =  4.5

     total cpu time spent up to now is      120.5 secs

     total energy              =    -338.61528338 Ry
     estimated scf accuracy    <      10.23859735 Ry

     total magnetization       =     0.20 Bohr mag/cell
     absolute magnetization    =     0.22 Bohr mag/cell

     iteration #  4     ecut=    60.00 Ry     beta= 0.70
     Davidson diagonalization with overlap
     ethr =  1.00E-02,  avg # of iterations =  2.5

     total cpu time spent up to now is      121.8 secs

     total energy              =    -339.68260748 Ry
     estimated scf accuracy    <       0.64932897 Ry

     total magnetization       =     0.36 Bohr mag/cell
     absolute magnetization    =     0.75 Bohr mag/cell

     iteration #  5     ecut=    60.00 Ry     beta= 0.70
     Davidson diagonalization with overlap
     ethr =  3.61E-03,  avg # of iterations =  1.3

     total cpu time spent up to now is      122.7 secs

     total energy              =    -339.73412042 Ry
     estimated scf accuracy    <       1.15479587 Ry

     total magnetization       =     0.38 Bohr mag/cell
     absolute magnetization    =     1.40 Bohr mag/cell

     iteration #  6     ecut=    60.00 Ry     beta= 0.70
     Davidson diagonalization with overlap
     ethr =  3.61E-03,  avg # of iterations =  1.0

     total cpu time spent up to now is      123.6 secs

     total energy              =    -339.74508434 Ry
     estimated scf accuracy    <       1.02783484 Ry

     total magnetization       =     0.46 Bohr mag/cell
     absolute magnetization    =     0.49 Bohr mag/cell

     iteration #  7     ecut=    60.00 Ry     beta= 0.70
     Davidson diagonalization with overlap
     ethr =  3.61E-03,  avg # of iterations =  1.0

     total cpu time spent up to now is      124.5 secs

     total energy              =    -339.70830592 Ry
     estimated scf accuracy    <       1.10290544 Ry

     total magnetization       =     0.51 Bohr mag/cell
     absolute magnetization    =     0.97 Bohr mag/cell

     iteration #  8     ecut=    60.00 Ry     beta= 0.70
     Davidson diagonalization with overlap
     ethr =  3.61E-03,  avg # of iterations =  1.0

     total cpu time spent up to now is      125.4 secs

     total energy              =    -339.67957762 Ry
     estimated scf accuracy    <       0.79920419 Ry

     total magnetization       =     0.56 Bohr mag/cell
     absolute magnetization    =     0.61 Bohr mag/cell

     iteration #  9     ecut=    60.00 Ry     beta= 0.70
     Davidson diagonalization with overlap
     ethr =  3.61E-03,  avg # of iterations =  1.0

     total cpu time spent up to now is      126.3 secs

     total energy              =    -339.65439671 Ry
     estimated scf accuracy    <       0.63498835 Ry

     total magnetization       =     0.60 Bohr mag/cell
     absolute magnetization    =     0.62 Bohr mag/cell

     iteration # 10     ecut=    60.00 Ry     beta= 0.70
     Davidson diagonalization with overlap
     ethr =  3.53E-03,  avg # of iterations =  1.0

     total cpu time spent up to now is      127.2 secs

     total energy              =    -339.49817970 Ry
     estimated scf accuracy    <       0.57699769 Ry

     total magnetization       =     0.63 Bohr mag/cell
     absolute magnetization    =     0.84 Bohr mag/cell

     iteration # 11     ecut=    60.00 Ry     beta= 0.70
     Davidson diagonalization with overlap
     ethr =  3.21E-03,  avg # of iterations =  1.1

     total cpu time spent up to now is      128.1 secs

     total energy              =    -339.53898136 Ry
     estimated scf accuracy    <       0.02992048 Ry

     total magnetization       =     0.73 Bohr mag/cell
     absolute magnetization    =     0.79 Bohr mag/cell

     iteration # 12     ecut=    60.00 Ry     beta= 0.70
     Davidson diagonalization with overlap
     ethr =  1.66E-04,  avg # of iterations =  2.8

     total cpu time spent up to now is      129.3 secs

     total energy              =    -339.54653835 Ry
     estimated scf accuracy    <       0.09790395 Ry

     total magnetization       =     0.72 Bohr mag/cell
     absolute magnetization    =     0.82 Bohr mag/cell

     iteration # 13     ecut=    60.00 Ry     beta= 0.70
     Davidson diagonalization with overlap
     ethr =  1.66E-04,  avg # of iterations =  1.5

     total cpu time spent up to now is      130.4 secs

     total energy              =    -339.54728630 Ry
     estimated scf accuracy    <       0.00422119 Ry

     total magnetization       =     0.72 Bohr mag/cell
     absolute magnetization    =     0.78 Bohr mag/cell

     iteration # 14     ecut=    60.00 Ry     beta= 0.70
     Davidson diagonalization with overlap
     ethr =  2.35E-05,  avg # of iterations =  1.7

     total cpu time spent up to now is      131.4 secs

     total energy              =    -339.54782786 Ry
     estimated scf accuracy    <       0.00068918 Ry

     total magnetization       =     0.73 Bohr mag/cell
     absolute magnetization    =     0.79 Bohr mag/cell

     iteration # 15     ecut=    60.00 Ry     beta= 0.70
     Davidson diagonalization with overlap
     ethr =  3.83E-06,  avg # of iterations =  2.3

     total cpu time spent up to now is      132.5 secs

     total energy              =    -339.54786710 Ry
     estimated scf accuracy    <       0.00363103 Ry

     total magnetization       =     0.74 Bohr mag/cell
     absolute magnetization    =     0.80 Bohr mag/cell

     iteration # 16     ecut=    60.00 Ry     beta= 0.70
     Davidson diagonalization with overlap
     ethr =  3.83E-06,  avg # of iterations =  1.5

     total cpu time spent up to now is      133.6 secs

     total energy              =    -339.54782536 Ry
     estimated scf accuracy    <       0.00575569 Ry

     total magnetization       =     0.74 Bohr mag/cell
     absolute magnetization    =     0.81 Bohr mag/cell

     iteration # 17     ecut=    60.00 Ry     beta= 0.70
     Davidson diagonalization with overlap
     ethr =  3.83E-06,  avg # of iterations =  2.0

     total cpu time spent up to now is      134.7 secs

     total energy              =    -339.54780070 Ry
     estimated scf accuracy    <       0.01437907 Ry

     total magnetization       =     0.75 Bohr mag/cell
     absolute magnetization    =     0.84 Bohr mag/cell

     iteration # 18     ecut=    60.00 Ry     beta= 0.70
     Davidson diagonalization with overlap
     ethr =  3.83E-06,  avg # of iterations =  2.0

     total cpu time spent up to now is      135.8 secs

     total energy              =    -339.54782277 Ry
     estimated scf accuracy    <       0.00268325 Ry

     total magnetization       =     0.75 Bohr mag/cell
     absolute magnetization    =     0.82 Bohr mag/cell

     iteration # 19     ecut=    60.00 Ry     beta= 0.70
     Davidson diagonalization with overlap
     ethr =  3.83E-06,  avg # of iterations =  2.0

     total cpu time spent up to now is      136.9 secs

     total energy              =    -339.54780064 Ry
     estimated scf accuracy    <       0.00642550 Ry

     total magnetization       =     0.75 Bohr mag/cell
     absolute magnetization    =     0.82 Bohr mag/cell

     iteration # 20     ecut=    60.00 Ry     beta= 0.70
     Davidson diagonalization with overlap
     ethr =  3.83E-06,  avg # of iterations =  2.0

     total cpu time spent up to now is      137.9 secs

     total energy              =    -339.54789125 Ry
     estimated scf accuracy    <       0.00022832 Ry

     total magnetization       =     0.75 Bohr mag/cell
     absolute magnetization    =     0.81 Bohr mag/cell

     iteration # 21     ecut=    60.00 Ry     beta= 0.70
     Davidson diagonalization with overlap
     ethr =  1.27E-06,  avg # of iterations =  1.0

     total cpu time spent up to now is      138.8 secs

     total energy              =    -339.54791659 Ry
     estimated scf accuracy    <       0.00005570 Ry

     total magnetization       =     0.77 Bohr mag/cell
     absolute magnetization    =     0.84 Bohr mag/cell

     iteration # 22     ecut=    60.00 Ry     beta= 0.70
     Davidson diagonalization with overlap
     ethr =  3.09E-07,  avg # of iterations =  2.0

     total cpu time spent up to now is      139.9 secs

     total energy              =    -339.54794242 Ry
     estimated scf accuracy    <       0.00166905 Ry

     total magnetization       =     0.80 Bohr mag/cell
     absolute magnetization    =     0.87 Bohr mag/cell

     iteration # 23     ecut=    60.00 Ry     beta= 0.70
     Davidson diagonalization with overlap
     ethr =  3.09E-07,  avg # of iterations =  1.9

     total cpu time spent up to now is      141.0 secs

     total energy              =    -339.54798263 Ry
     estimated scf accuracy    <       0.00001826 Ry

     total magnetization       =     0.82 Bohr mag/cell
     absolute magnetization    =     0.89 Bohr mag/cell

     iteration # 24     ecut=    60.00 Ry     beta= 0.70
     Davidson diagonalization with overlap
     ethr =  1.01E-07,  avg # of iterations =  2.0

     total cpu time spent up to now is      142.1 secs

     total energy              =    -339.54800021 Ry
     estimated scf accuracy    <       0.00001128 Ry

     total magnetization       =     0.83 Bohr mag/cell
     absolute magnetization    =     0.91 Bohr mag/cell

     iteration # 25     ecut=    60.00 Ry     beta= 0.70
     Davidson diagonalization with overlap
     ethr =  6.26E-08,  avg # of iterations =  2.0

     total cpu time spent up to now is      143.2 secs

     total energy              =    -339.54799512 Ry
     estimated scf accuracy    <       0.00023401 Ry

     total magnetization       =     0.83 Bohr mag/cell
     absolute magnetization    =     0.91 Bohr mag/cell

     iteration # 26     ecut=    60.00 Ry     beta= 0.70
     Davidson diagonalization with overlap
     ethr =  6.26E-08,  avg # of iterations =  2.0

     total cpu time spent up to now is      144.3 secs

     total energy              =    -339.54799948 Ry
     estimated scf accuracy    <       0.00060649 Ry

     total magnetization       =     0.83 Bohr mag/cell
     absolute magnetization    =     0.91 Bohr mag/cell

     iteration # 27     ecut=    60.00 Ry     beta= 0.70
     Davidson diagonalization with overlap
     ethr =  6.26E-08,  avg # of iterations =  2.0

     total cpu time spent up to now is      145.4 secs

     total energy              =    -339.54800468 Ry
     estimated scf accuracy    <       0.00024230 Ry

     total magnetization       =     0.83 Bohr mag/cell
     absolute magnetization    =     0.91 Bohr mag/cell

     iteration # 28     ecut=    60.00 Ry     beta= 0.70
     Davidson diagonalization with overlap
     ethr =  6.26E-08,  avg # of iterations =  1.0

     total cpu time spent up to now is      146.3 secs

     total energy              =    -339.54800379 Ry
     estimated scf accuracy    <       0.00024801 Ry

     total magnetization       =     0.83 Bohr mag/cell
     absolute magnetization    =     0.91 Bohr mag/cell

     iteration # 29     ecut=    60.00 Ry     beta= 0.70
     Davidson diagonalization with overlap
     ethr =  6.26E-08,  avg # of iterations =  2.0

     total cpu time spent up to now is      147.4 secs

     total energy              =    -339.54799191 Ry
     estimated scf accuracy    <       0.00024222 Ry

     total magnetization       =     0.84 Bohr mag/cell
     absolute magnetization    =     0.92 Bohr mag/cell

     iteration # 30     ecut=    60.00 Ry     beta= 0.70
     Davidson diagonalization with overlap
     ethr =  6.26E-08,  avg # of iterations =  2.0

     total cpu time spent up to now is      148.4 secs

     total energy              =    -339.54799895 Ry
     estimated scf accuracy    <       0.00009606 Ry

     total magnetization       =     0.83 Bohr mag/cell
     absolute magnetization    =     0.91 Bohr mag/cell

     iteration # 31     ecut=    60.00 Ry     beta= 0.70
     Davidson diagonalization with overlap
     ethr =  6.26E-08,  avg # of iterations =  1.5

     total cpu time spent up to now is      149.5 secs

     total energy              =    -339.54800252 Ry
     estimated scf accuracy    <       0.00006442 Ry

     total magnetization       =     0.84 Bohr mag/cell
     absolute magnetization    =     0.92 Bohr mag/cell

     iteration # 32     ecut=    60.00 Ry     beta= 0.70
     Davidson diagonalization with overlap
     ethr =  6.26E-08,  avg # of iterations =  1.0

     total cpu time spent up to now is      150.4 secs

     total energy              =    -339.54800174 Ry
     estimated scf accuracy    <       0.00007118 Ry

     total magnetization       =     0.84 Bohr mag/cell
     absolute magnetization    =     0.92 Bohr mag/cell

     iteration # 33     ecut=    60.00 Ry     beta= 0.70
     Davidson diagonalization with overlap
     ethr =  6.26E-08,  avg # of iterations =  1.4

     total cpu time spent up to now is      151.4 secs

     total energy              =    -339.54800081 Ry
     estimated scf accuracy    <       0.00003154 Ry

     total magnetization       =     0.84 Bohr mag/cell
     absolute magnetization    =     0.92 Bohr mag/cell

     iteration # 34     ecut=    60.00 Ry     beta= 0.70
     Davidson diagonalization with overlap
     ethr =  6.26E-08,  avg # of iterations =  2.0

     total cpu time spent up to now is      152.5 secs

     total energy              =    -339.54800202 Ry
     estimated scf accuracy    <       0.00002589 Ry

     total magnetization       =     0.84 Bohr mag/cell
     absolute magnetization    =     0.92 Bohr mag/cell

     iteration # 35     ecut=    60.00 Ry     beta= 0.70
     Davidson diagonalization with overlap
     ethr =  6.26E-08,  avg # of iterations =  1.0

     total cpu time spent up to now is      153.4 secs

     total energy              =    -339.54800187 Ry
     estimated scf accuracy    <       0.00001354 Ry

     total magnetization       =     0.84 Bohr mag/cell
     absolute magnetization    =     0.92 Bohr mag/cell

     iteration # 36     ecut=    60.00 Ry     beta= 0.70
     Davidson diagonalization with overlap
     ethr =  6.26E-08,  avg # of iterations =  1.0

     total cpu time spent up to now is      154.3 secs

     total energy              =    -339.54800187 Ry
     estimated scf accuracy    <       0.00000260 Ry

     total magnetization       =     0.84 Bohr mag/cell
     absolute magnetization    =     0.92 Bohr mag/cell

     iteration # 37     ecut=    60.00 Ry     beta= 0.70
     Davidson diagonalization with overlap
     ethr =  1.44E-08,  avg # of iterations =  1.0

     total cpu time spent up to now is      155.2 secs

     total energy              =    -339.54800192 Ry
     estimated scf accuracy    <       0.00000005 Ry

     total magnetization       =     0.84 Bohr mag/cell
     absolute magnetization    =     0.92 Bohr mag/cell

     iteration # 38     ecut=    60.00 Ry     beta= 0.70
     Davidson diagonalization with overlap
     ethr =  2.61E-10,  avg # of iterations =  1.5

     total cpu time spent up to now is      156.2 secs

     total energy              =    -339.54800192 Ry
     estimated scf accuracy    <       0.00000001 Ry

     total magnetization       =     0.84 Bohr mag/cell
     absolute magnetization    =     0.92 Bohr mag/cell

     iteration # 39     ecut=    60.00 Ry     beta= 0.70
     Davidson diagonalization with overlap
     ethr =  7.75E-11,  avg # of iterations =  1.5

     total cpu time spent up to now is      157.2 secs

     total energy              =    -339.54800192 Ry
     estimated scf accuracy    <       0.00000001 Ry

     total magnetization       =     0.84 Bohr mag/cell
     absolute magnetization    =     0.92 Bohr mag/cell

     iteration # 40     ecut=    60.00 Ry     beta= 0.70
     Davidson diagonalization with overlap
     ethr =  5.95E-11,  avg # of iterations =  1.0

     total cpu time spent up to now is      158.1 secs

     total energy              =    -339.54800192 Ry
     estimated scf accuracy    <          9.8E-09 Ry

     total magnetization       =     0.84 Bohr mag/cell
     absolute magnetization    =     0.92 Bohr mag/cell

     iteration # 41     ecut=    60.00 Ry     beta= 0.70
     Davidson diagonalization with overlap
     ethr =  5.47E-11,  avg # of iterations =  1.0

     total cpu time spent up to now is      159.0 secs

     total energy              =    -339.54800192 Ry
     estimated scf accuracy    <       0.00000002 Ry

     total magnetization       =     0.84 Bohr mag/cell
     absolute magnetization    =     0.92 Bohr mag/cell

     iteration # 42     ecut=    60.00 Ry     beta= 0.70
     Davidson diagonalization with overlap
     ethr =  5.47E-11,  avg # of iterations =  1.0

     total cpu time spent up to now is      159.9 secs

     total energy              =    -339.54800192 Ry
     estimated scf accuracy    <       0.00000002 Ry

     total magnetization       =     0.84 Bohr mag/cell
     absolute magnetization    =     0.92 Bohr mag/cell

     iteration # 43     ecut=    60.00 Ry     beta= 0.70
     Davidson diagonalization with overlap
     ethr =  5.47E-11,  avg # of iterations =  1.3

     total cpu time spent up to now is      160.8 secs

     total energy              =    -339.54800192 Ry
     estimated scf accuracy    <          3.0E-09 Ry

     total magnetization       =     0.84 Bohr mag/cell
     absolute magnetization    =     0.92 Bohr mag/cell

     iteration # 44     ecut=    60.00 Ry     beta= 0.70
     Davidson diagonalization with overlap
     ethr =  1.67E-11,  avg # of iterations =  1.0

     total cpu time spent up to now is      161.7 secs

     total energy              =    -339.54800192 Ry
     estimated scf accuracy    <          1.2E-09 Ry

     total magnetization       =     0.84 Bohr mag/cell
     absolute magnetization    =     0.92 Bohr mag/cell

     iteration # 45     ecut=    60.00 Ry     beta= 0.70
     Davidson diagonalization with overlap
     ethr =  6.76E-12,  avg # of iterations =  1.0

     Magnetic moment per site  (integrated on atomic sphere of radius R)
     atom   1 (R=0.302)  charge= 15.9599  magn=  0.8695

     total cpu time spent up to now is      162.6 secs

     End of self-consistent calculation

     Number of k-points >= 100: set verbosity='high' to print the bands.

     the Fermi energy is    13.6521 ev

!    total energy              =    -339.54800192 Ry
     estimated scf accuracy    <          8.8E-10 Ry
     smearing contrib. (-TS)   =       0.00023803 Ry
     internal energy E=F+TS    =    -339.54823995 Ry

     The total energy is F=E-TS. E is the sum of the following terms:
     one-electron contribution =    -220.74553596 Ry
     hartree contribution      =     119.06325358 Ry
     xc contribution           =     -34.28969564 Ry
     ewald contribution        =    -203.57626193 Ry

     total magnetization       =     0.84 Bohr mag/cell
     absolute magnetization    =     0.92 Bohr mag/cell

     convergence has been achieved in  45 iterations

     Forces acting on atoms (cartesian axes, Ry/au):

     atom    1 type  1   force =     0.00000000    0.00000000    0.00000000

     Total force =     0.000000     Total SCF correction =     0.000024


     Computing stress (Cartesian axis) and pressure

          total   stress  (Ry/bohr**3)                   (kbar)     P=      -79.92
  -0.00090199  -0.00000002  -0.00013805         -132.69       -0.00      -20.31
  -0.00000002   0.00129825   0.00000008           -0.00      190.98        0.01
  -0.00013805   0.00000008  -0.00202620          -20.31        0.01     -298.06

     Energy error            =      3.3E-02 Ry
     Gradient error          =      0.0E+00 Ry/Bohr
     Cell gradient error     =      3.0E+02 kbar

     number of scf cycles    =   4
     number of bfgs steps    =   3

     enthalpy           old  =    -339.5152696150 Ry
     enthalpy           new  =    -339.5480019185 Ry

     CASE: enthalpy          _new < enthalpy          _old

     new trust radius        =       0.2404848292 bohr
     new conv_thr            =       0.0000000010 Ry

     new unit-cell volume =     69.07759 a.u.^3 (    10.23624 Ang^3 )
     density =      9.52133 g/cm^3

CELL_PARAMETERS (bohr)
   4.164183830  -0.000017712   0.020140198
  -0.000015067   3.965810595   0.000174034
  -1.523270304   0.000206119   4.175511579

ATOMIC_POSITIONS (crystal)
Ni            0.0000000000        0.0000000000        0.0000000000



     Writing config-only to output data dir ./out/pwscf.save/
     NEW-OLD atomic charge density approx. for the potential
     extrapolated charge   12.18464, renormalised to   18.00000
     Generating pointlists ...
     new r_m :   0.2916 (alat units)  1.6359 (a.u.) for type    1

     total cpu time spent up to now is      163.2 secs

     Self-consistent Calculation

     iteration #  1     ecut=    60.00 Ry     beta= 0.70
     Davidson diagonalization with overlap
     ethr =  1.00E-06,  avg # of iterations = 10.5

     total cpu time spent up to now is      166.8 secs

     total energy              =    -312.13571476 Ry
     estimated scf accuracy    <      34.49895315 Ry

     total magnetization       =    -0.00 Bohr mag/cell
     absolute magnetization    =     0.03 Bohr mag/cell

     iteration #  2     ecut=    60.00 Ry     beta= 0.70
     Davidson diagonalization with overlap
     ethr =  1.00E-02,  avg # of iterations =  4.2

     total cpu time spent up to now is      168.6 secs

     total energy              =    -338.82791527 Ry
     estimated scf accuracy    <      46.90337059 Ry

     total magnetization       =     0.03 Bohr mag/cell
     absolute magnetization    =     0.05 Bohr mag/cell

     iteration #  3     ecut=    60.00 Ry     beta= 0.70
[...]

     total energy              =    -339.57841048 Ry
     estimated scf accuracy    <       0.00000066 Ry

     total magnetization       =     0.00 Bohr mag/cell
     absolute magnetization    =     0.00 Bohr mag/cell

     iteration #  9     ecut=    60.00 Ry     beta= 0.70
     Davidson diagonalization with overlap
     ethr =  3.28E-09,  avg # of iterations =  1.0

     total cpu time spent up to now is      556.6 secs

     total energy              =    -339.57841046 Ry
     estimated scf accuracy    <       0.00000045 Ry

     total magnetization       =     0.00 Bohr mag/cell
     absolute magnetization    =     0.00 Bohr mag/cell

     iteration # 10     ecut=    60.00 Ry     beta= 0.70
     Davidson diagonalization with overlap
     ethr =  2.47E-09,  avg # of iterations =  1.0

     total cpu time spent up to now is      557.5 secs

     total energy              =    -339.57841036 Ry
     estimated scf accuracy    <       0.00000031 Ry

     total magnetization       =    -0.00 Bohr mag/cell
     absolute magnetization    =     0.00 Bohr mag/cell

     iteration # 11     ecut=    60.00 Ry     beta= 0.70
     Davidson diagonalization with overlap
     ethr =  1.74E-09,  avg # of iterations =  1.3

     total cpu time spent up to now is      558.4 secs

     total energy              =    -339.57841040 Ry
     estimated scf accuracy    <       0.00000001 Ry

     total magnetization       =    -0.00 Bohr mag/cell
     absolute magnetization    =     0.00 Bohr mag/cell

     iteration # 12     ecut=    60.00 Ry     beta= 0.70
     Davidson diagonalization with overlap
     ethr =  7.44E-11,  avg # of iterations =  2.0

     Magnetic moment per site  (integrated on atomic sphere of radius R)
     atom   1 (R=0.292)  charge= 15.8170  magn= -0.0000

     total cpu time spent up to now is      559.5 secs

     End of self-consistent calculation

     Number of k-points >= 100: set verbosity='high' to print the bands.

     the Fermi energy is    16.5509 ev

!    total energy              =    -339.57841040 Ry
     estimated scf accuracy    <          7.7E-11 Ry
     smearing contrib. (-TS)   =       0.00027439 Ry
     internal energy E=F+TS    =    -339.57868479 Ry

     The total energy is F=E-TS. E is the sum of the following terms:
     one-electron contribution =    -198.43949060 Ry
     hartree contribution      =     109.88070963 Ry
     xc contribution           =     -34.33340126 Ry
     ewald contribution        =    -216.68650256 Ry

     total magnetization       =    -0.00 Bohr mag/cell
     absolute magnetization    =     0.00 Bohr mag/cell

     convergence has been achieved in  12 iterations

     Forces acting on atoms (cartesian axes, Ry/au):

     atom    1 type  1   force =     0.00000000    0.00000000    0.00000000

     Total force =     0.000000     Total SCF correction =     0.000005


     Computing stress (Cartesian axis) and pressure

          total   stress  (Ry/bohr**3)                   (kbar)     P=       -0.08
  -0.00000106   0.00000014  -0.00000008           -0.16        0.02       -0.01
   0.00000014   0.00000023   0.00000094            0.02        0.03        0.14
  -0.00000008   0.00000094  -0.00000070           -0.01        0.14       -0.10

     Energy error            =      2.1E-08 Ry
     Gradient error          =      0.0E+00 Ry/Bohr
     Cell gradient error     =      1.6E-01 kbar

     bfgs converged in  18 scf cycles and  16 bfgs steps
     (criteria: energy <  1.0E-05 Ry, force <  1.0E-04 Ry/Bohr, cell <  5.0E-01 kbar)

     End of BFGS Geometry Optimization

     Final enthalpy           =    -339.5784103995 Ry

     File ./out/pwscf.bfgs deleted, as requested
Begin final coordinates
     new unit-cell volume =     78.07297 a.u.^3 (    11.56922 Ang^3 )
     density =      8.42431 g/cm^3

CELL_PARAMETERS (bohr)
   4.499534197   0.000121640  -0.287343320
   0.000067290   4.410101867   0.000710558
  -1.982995782   0.000967082   4.061090298

ATOMIC_POSITIONS (crystal)
Ni            0.0000000000        0.0000000000        0.0000000000
End final coordinates



     Writing config-only to output data dir ./out/pwscf.save/

     Final scf calculation at the relaxed structure.
     The G-vectors are recalculated for the final unit cell
     Results may differ from those at the preceding step.

     Parallelization info
     --------------------
     sticks:   dense  smooth     PW     G-vecs:    dense   smooth      PW
     Min          62      31     11                 1153      408      84
     Max          63      32     12                 1157      410      85
     Sum         753     379    137                13867     4907    1017

     Using Slab Decomposition



     bravais-lattice index     =            0
     lattice parameter (alat)  =       5.6099  a.u.
     unit-cell volume          =      78.0730 (a.u.)^3
     number of atoms/cell      =            1
     number of atomic types    =            1
     number of electrons       =        18.00
     number of Kohn-Sham states=           13
     kinetic-energy cutoff     =      60.0000  Ry
     charge density cutoff     =     480.0000  Ry
     scf convergence threshold =      1.0E-09
     mixing beta               =       0.7000
     number of iterations used =            8  TF        mixing
     press convergence thresh. =      5.0E-01
     Exchange-correlation= PBE
                           (   1   4   3   4   0   0   0)

     celldm(1)=   5.609878  celldm(2)=   0.000000  celldm(3)=   0.000000
     celldm(4)=   0.000000  celldm(5)=   0.000000  celldm(6)=   0.000000

     crystal axes: (cart. coord. in units of alat)
               a(1) = (   0.802073   0.000022  -0.051221 )  
               a(2) = (   0.000012   0.786131   0.000127 )  
               a(3) = (  -0.353483   0.000172   0.723918 )  

     reciprocal axes: (cart. coord. in units 2 pi/alat)
               b(1) = (  1.286898 -0.000121  0.628381 )  
               b(2) = ( -0.000055  1.272052 -0.000330 )  
               b(3) = (  0.091055 -0.000231  1.425834 )  


     PseudoPot. # 1 for Ni read from file:
     /home/jmgoff/work/automation/qe_pseudos/Ni.upf
     MD5 check sum: caf20d35bef94d268ef04de15446df97
     Pseudo is Ultrasoft + core correction, Zval = 18.0
     Generated using 'atomic' code by A. Dal Corso  v.7.1
     Using radial grid of 1195 points,  6 beta functions with: 
                l(1) =   0
                l(2) =   0
                l(3) =   1
                l(4) =   1
                l(5) =   2
                l(6) =   2
     Q(r) pseudized with 0 coefficients 


     atomic species   valence    mass     pseudopotential
        Ni            18.00    58.69340     Ni( 1.00)

     Starting magnetic structure 
     atomic species   magnetization
        Ni          -0.000

     No symmetry found



   Cartesian axes

     site n.     atom                  positions (alat units)
         1           Ni  tau(   1) = (   0.0000000   0.0000000   0.0000000  )

     number of k points=   221  Marzari-Vanderbilt smearing, width (Ry)=  0.0100

     Number of k-points >= 100: set verbosity='high' to print them.

     Dense  grid:    13867 G-vectors     FFT dimensions: (  32,  32,  32)

     Smooth grid:     4907 G-vectors     FFT dimensions: (  24,  24,  24)

     Estimated max dynamical RAM per process >       8.74 MB

     Estimated total dynamical RAM >     203.08 MB

     Check: negative core charge=   -0.000001
     Generating pointlists ...

     Initial potential from superposition of free atoms

     starting charge      17.9998, renormalised to      18.0000
     Starting wfcs are   10 randomized atomic wfcs +    3 random wfcs

     total cpu time spent up to now is      560.4 secs

     Self-consistent Calculation

     iteration #  1     ecut=    60.00 Ry     beta= 0.70
     Davidson diagonalization with overlap
     c_bands:  1 eigenvalues not converged
     c_bands:  1 eigenvalues not converged
     c_bands:  1 eigenvalues not converged
     c_bands:  1 eigenvalues not converged
     c_bands:  1 eigenvalues not converged
     c_bands:  1 eigenvalues not converged
     c_bands:  1 eigenvalues not converged
     c_bands:  1 eigenvalues not converged
     c_bands:  1 eigenvalues not converged
     c_bands:  1 eigenvalues not converged
     c_bands:  1 eigenvalues not converged
     c_bands:  1 eigenvalues not converged
     c_bands:  1 eigenvalues not converged
     c_bands:  1 eigenvalues not converged
     ethr =  1.00E-06,  avg # of iterations = 11.6

     total cpu time spent up to now is      562.8 secs

     total energy              =    -339.56185380 Ry
     estimated scf accuracy    <       0.01981154 Ry

     total magnetization       =    -0.00 Bohr mag/cell
     absolute magnetization    =     0.00 Bohr mag/cell

     iteration #  2     ecut=    60.00 Ry     beta= 0.70
     Davidson diagonalization with overlap
     ethr =  1.10E-04,  avg # of iterations =  2.0

     total cpu time spent up to now is      563.6 secs

     total energy              =    -339.56455703 Ry
     estimated scf accuracy    <       0.01182446 Ry

     total magnetization       =    -0.00 Bohr mag/cell
     absolute magnetization    =     0.00 Bohr mag/cell

     iteration #  3     ecut=    60.00 Ry     beta= 0.70
     Davidson diagonalization with overlap
     ethr =  6.57E-05,  avg # of iterations =  2.0

     total cpu time spent up to now is      564.3 secs

     total energy              =    -339.56680423 Ry
     estimated scf accuracy    <       0.00103028 Ry

     total magnetization       =    -0.00 Bohr mag/cell
     absolute magnetization    =     0.00 Bohr mag/cell

     iteration #  4     ecut=    60.00 Ry     beta= 0.70
     Davidson diagonalization with overlap
     ethr =  5.72E-06,  avg # of iterations =  1.0

     total cpu time spent up to now is      565.0 secs

     total energy              =    -339.56685730 Ry
     estimated scf accuracy    <       0.00009948 Ry

     total magnetization       =    -0.00 Bohr mag/cell
     absolute magnetization    =     0.00 Bohr mag/cell

     iteration #  5     ecut=    60.00 Ry     beta= 0.70
     Davidson diagonalization with overlap
     ethr =  5.53E-07,  avg # of iterations =  2.0

     total cpu time spent up to now is      565.7 secs

     total energy              =    -339.56682799 Ry
     estimated scf accuracy    <       0.00185320 Ry

     total magnetization       =    -0.00 Bohr mag/cell
     absolute magnetization    =     0.00 Bohr mag/cell

     iteration #  6     ecut=    60.00 Ry     beta= 0.70
     Davidson diagonalization with overlap
     ethr =  5.53E-07,  avg # of iterations =  2.0

     total cpu time spent up to now is      566.5 secs

     total energy              =    -339.56686906 Ry
     estimated scf accuracy    <       0.00000932 Ry

     total magnetization       =    -0.00 Bohr mag/cell
     absolute magnetization    =     0.00 Bohr mag/cell

     iteration #  7     ecut=    60.00 Ry     beta= 0.70
     Davidson diagonalization with overlap
     ethr =  5.18E-08,  avg # of iterations =  2.0

     total cpu time spent up to now is      567.3 secs

     total energy              =    -339.56686861 Ry
     estimated scf accuracy    <       0.00005654 Ry

     total magnetization       =    -0.00 Bohr mag/cell
     absolute magnetization    =     0.00 Bohr mag/cell

     iteration #  8     ecut=    60.00 Ry     beta= 0.70
     Davidson diagonalization with overlap
     ethr =  5.18E-08,  avg # of iterations =  2.0

     total cpu time spent up to now is      568.1 secs

     total energy              =    -339.56687033 Ry
     estimated scf accuracy    <       0.00002295 Ry

     total magnetization       =     0.00 Bohr mag/cell
     absolute magnetization    =     0.01 Bohr mag/cell

     iteration #  9     ecut=    60.00 Ry     beta= 0.70
     Davidson diagonalization with overlap
     ethr =  5.18E-08,  avg # of iterations =  1.0

     total cpu time spent up to now is      568.7 secs

     total energy              =    -339.56686904 Ry
     estimated scf accuracy    <       0.00003751 Ry

     total magnetization       =     0.00 Bohr mag/cell
     absolute magnetization    =     0.01 Bohr mag/cell

     iteration # 10     ecut=    60.00 Ry     beta= 0.70
     Davidson diagonalization with overlap
     ethr =  5.18E-08,  avg # of iterations =  2.0

     total cpu time spent up to now is      569.5 secs

     total energy              =    -339.56686985 Ry
     estimated scf accuracy    <       0.00000107 Ry

     total magnetization       =     0.00 Bohr mag/cell
     absolute magnetization    =     0.00 Bohr mag/cell

     iteration # 11     ecut=    60.00 Ry     beta= 0.70
     Davidson diagonalization with overlap
     ethr =  5.93E-09,  avg # of iterations =  1.2

     total cpu time spent up to now is      570.2 secs

     total energy              =    -339.56686975 Ry
     estimated scf accuracy    <       0.00000440 Ry

     total magnetization       =     0.00 Bohr mag/cell
     absolute magnetization    =     0.00 Bohr mag/cell

     iteration # 12     ecut=    60.00 Ry     beta= 0.70
     Davidson diagonalization with overlap
     ethr =  5.93E-09,  avg # of iterations =  1.8

     total cpu time spent up to now is      571.0 secs

     total energy              =    -339.56686982 Ry
     estimated scf accuracy    <       0.00000053 Ry

     total magnetization       =     0.00 Bohr mag/cell
     absolute magnetization    =     0.00 Bohr mag/cell

     iteration # 13     ecut=    60.00 Ry     beta= 0.70
     Davidson diagonalization with overlap
     ethr =  2.96E-09,  avg # of iterations =  1.0

     total cpu time spent up to now is      571.6 secs

     total energy              =    -339.56686983 Ry
     estimated scf accuracy    <       0.00000008 Ry

     total magnetization       =     0.00 Bohr mag/cell
     absolute magnetization    =     0.00 Bohr mag/cell

     iteration # 14     ecut=    60.00 Ry     beta= 0.70
     Davidson diagonalization with overlap
     ethr =  4.70E-10,  avg # of iterations =  2.0

     total cpu time spent up to now is      572.4 secs

     total energy              =    -339.56686981 Ry
     estimated scf accuracy    <       0.00000147 Ry

     total magnetization       =     0.00 Bohr mag/cell
     absolute magnetization    =     0.00 Bohr mag/cell

     iteration # 15     ecut=    60.00 Ry     beta= 0.70
     Davidson diagonalization with overlap
     ethr =  4.70E-10,  avg # of iterations =  2.0

     total cpu time spent up to now is      573.2 secs

     total energy              =    -339.56686983 Ry
     estimated scf accuracy    <          9.4E-09 Ry

     total magnetization       =     0.00 Bohr mag/cell
     absolute magnetization    =     0.00 Bohr mag/cell

     iteration # 16     ecut=    60.00 Ry     beta= 0.70
     Davidson diagonalization with overlap
     ethr =  5.23E-11,  avg # of iterations =  1.4

     total cpu time spent up to now is      573.9 secs

     total energy              =    -339.56686983 Ry
     estimated scf accuracy    <          1.7E-09 Ry

     total magnetization       =     0.00 Bohr mag/cell
     absolute magnetization    =     0.00 Bohr mag/cell

     iteration # 17     ecut=    60.00 Ry     beta= 0.70
     Davidson diagonalization with overlap
     ethr =  9.39E-12,  avg # of iterations =  1.0

     Magnetic moment per site  (integrated on atomic sphere of radius R)
     atom   1 (R=0.292)  charge= 15.8154  magn=  0.0000

     total cpu time spent up to now is      574.5 secs

     End of self-consistent calculation

     Number of k-points >= 100: set verbosity='high' to print the bands.

     the Fermi energy is    16.5553 ev

!    total energy              =    -339.56686983 Ry
     estimated scf accuracy    <          1.8E-10 Ry
     smearing contrib. (-TS)   =       0.00026832 Ry
     internal energy E=F+TS    =    -339.56713815 Ry

     The total energy is F=E-TS. E is the sum of the following terms:
     one-electron contribution =    -198.42242492 Ry
     hartree contribution      =     109.86963709 Ry
     xc contribution           =     -34.32784775 Ry
     ewald contribution        =    -216.68650256 Ry

     total magnetization       =     0.00 Bohr mag/cell
     absolute magnetization    =     0.00 Bohr mag/cell

     convergence has been achieved in  17 iterations

     Forces acting on atoms (cartesian axes, Ry/au):

     atom    1 type  1   force =     0.00000000    0.00000000    0.00000000

     Total force =     0.000000     Total SCF correction =     0.000013


     Computing stress (Cartesian axis) and pressure

          total   stress  (Ry/bohr**3)                   (kbar)     P=        0.93
  -0.00000528   0.00000019  -0.00004644           -0.78        0.03       -6.83
   0.00000019   0.00012713   0.00000094            0.03       18.70        0.14
  -0.00004644   0.00000094  -0.00010294           -6.83        0.14      -15.14


     Writing all to output data dir ./out/pwscf.save/

     init_run     :      0.73s CPU      0.90s WALL (       2 calls)
     electrons    :    482.30s CPU    562.81s WALL (      19 calls)
     update_pot   :      1.84s CPU      1.89s WALL (      17 calls)
     forces       :      2.14s CPU      2.54s WALL (      19 calls)
     stress       :      5.48s CPU      5.75s WALL (      19 calls)

     Called by init_run:
     wfcinit      :      0.46s CPU      0.57s WALL (       2 calls)
     potinit      :      0.06s CPU      0.08s WALL (       2 calls)
     hinit0       :      0.19s CPU      0.23s WALL (       2 calls)

     Called by electrons:
     c_bands      :    406.10s CPU    474.67s WALL (     532 calls)
     sum_band     :     68.21s CPU     79.41s WALL (     532 calls)
     v_of_rho     :      4.75s CPU      4.96s WALL (     550 calls)
     newd         :      2.55s CPU      2.68s WALL (     550 calls)
     mix_rho      :      0.47s CPU      0.71s WALL (     532 calls)

     Called by c_bands:
     init_us_2    :      5.64s CPU      6.68s WALL (  243984 calls)
     init_us_2:cp :      5.36s CPU      6.40s WALL (  243984 calls)
     cegterg      :    391.45s CPU    455.01s WALL (  117572 calls)

     Called by *egterg:
     cdiaghg      :     42.45s CPU     49.05s WALL (  324887 calls)
     h_psi        :    274.07s CPU    319.19s WALL (  329307 calls)
     s_psi        :     12.07s CPU     13.83s WALL (  329307 calls)
     g_psi        :      0.74s CPU      0.87s WALL (  211293 calls)

     Called by h_psi:
     h_psi:calbec :     15.32s CPU     17.72s WALL (  329307 calls)
     vloc_psi     :    246.69s CPU    287.54s WALL (  329307 calls)
     add_vuspsi   :     10.57s CPU     12.24s WALL (  329307 calls)

     General routines
     calbec       :     22.10s CPU     25.90s WALL (  467874 calls)
     fft          :      1.80s CPU      2.05s WALL (   14491 calls)
     ffts         :      0.11s CPU      0.13s WALL (    2164 calls)
     fftw         :    282.62s CPU    329.80s WALL ( 8606530 calls)
     interpolate  :      0.18s CPU      0.21s WALL (    1100 calls)

     Parallel routines

     PWSCF        :   8m13.44s CPU   9m35.37s WALL


   This run was terminated on:  16:17:56  18Jun2023            

=------------------------------------------------------------------------------=
   JOB DONE.
=------------------------------------------------------------------------------=
Note: The following floating-point exceptions are signalling: IEEE_DENORMAL
Note: The following floating-point exceptions are signalling: IEEE_DENORMAL
Note: The following floating-point exceptions are signalling: IEEE_DENORMAL
Note: The following floating-point exceptions are signalling: IEEE_DENORMAL
Note: The following floating-point exceptions are signalling: IEEE_DENORMAL
Note: The following floating-point exceptions are signalling: IEEE_DENORMAL
Note: The following floating-point exceptions are signalling: IEEE_DENORMAL
Note: The following floating-point exceptions are signalling: IEEE_DENORMAL
