Ignoring PCI device with non-16bit domain.
Pass --enable-32bits-pci-domain to configure to support such devices
(warning: it would break the library ABI, don't enable unless really needed).

     Program PWSCF v.7.1 starts on 23Jun2023 at 16:39:58 

     This program is part of the open-source Quantum ESPRESSO suite
     for quantum simulation of materials; please cite
         "P. Giannozzi et al., J. Phys.:Condens. Matter 21 395502 (2009);
         "P. Giannozzi et al., J. Phys.:Condens. Matter 29 465901 (2017);
         "P. Giannozzi et al., J. Chem. Phys. 152 154105 (2020);
          URL http://www.quantum-espresso.org", 
     in publications or presentations arising from this work. More details at
     http://www.quantum-espresso.org/quote

     Parallel version (MPI), running on    24 processors

     MPI processes distributed on     1 nodes
     12230 MiB available memory on the printing compute node when the environment starts

     Reading input from Ni_tetragonal_st_atoms.in

     Current dimensions of program PWSCF are:
     Max number of different atomic species (ntypx) = 10
     Max number of k-points (npk) =  40000
     Max angular momentum in pseudopotentials (lmaxx) =  4
     Found identity + (  0.0000  0.0000  0.5000) symmetry
     This is a supercell, fractional translations are disabled

     R & G space division:  proc/nbgrp/npool/nimage =      24
     Subspace diagonalization in iterative solution of the eigenvalue problem:
     a serial algorithm will be used


     Parallelization info
     --------------------
     sticks:   dense  smooth     PW     G-vecs:    dense   smooth      PW
     Min          25      12      4                 1295      454      84
     Max          26      13      5                 1306      467      95
     Sum         621     305    101                31247    11037    2059

     Using Slab Decomposition



     bravais-lattice index     =            0
     lattice parameter (alat)  =       4.0440  a.u.
     unit-cell volume          =     176.3624 (a.u.)^3
     number of atoms/cell      =            2
     number of atomic types    =            1
     number of electrons       =        36.00
     number of Kohn-Sham states=           22
     kinetic-energy cutoff     =      60.0000  Ry
     charge density cutoff     =     480.0000  Ry
     scf convergence threshold =      1.0E-06
     mixing beta               =       0.7000
     number of iterations used =            8  TF        mixing
     energy convergence thresh.=      1.0E-05
     force convergence thresh. =      1.0E-04
     press convergence thresh. =      5.0E-01
     Exchange-correlation= PBE
                           (   1   4   3   4   0   0   0)
     nstep                     =           50


     celldm(1)=   4.044014  celldm(2)=   0.000000  celldm(3)=   0.000000
     celldm(4)=   0.000000  celldm(5)=   0.000000  celldm(6)=   0.000000

     crystal axes: (cart. coord. in units of alat)
               a(1) = (   1.000000   0.000000   0.000000 )  
               a(2) = (   0.000000   1.000000   0.000000 )  
               a(3) = (   0.000000   0.000000   2.666664 )  

     reciprocal axes: (cart. coord. in units 2 pi/alat)
               b(1) = (  1.000000  0.000000  0.000000 )  
               b(2) = (  0.000000  1.000000  0.000000 )  
               b(3) = (  0.000000  0.000000  0.375000 )  


     PseudoPot. # 1 for Ni read from file:
     /home/jmgoff/work/automation/qe_pseudos/Ni.upf
     MD5 check sum: caf20d35bef94d268ef04de15446df97
     Pseudo is Ultrasoft + core correction, Zval = 18.0
     Generated using 'atomic' code by A. Dal Corso  v.7.1
     Using radial grid of 1195 points,  6 beta functions with: 
                l(1) =   0
                l(2) =   0
                l(3) =   1
                l(4) =   1
                l(5) =   2
                l(6) =   2
     Q(r) pseudized with 0 coefficients 


     atomic species   valence    mass     pseudopotential
        Ni            18.00    58.69340     Ni( 1.00)

     Starting magnetic structure 
     atomic species   magnetization
        Ni           1.000

     No symmetry found



   Cartesian axes

     site n.     atom                  positions (alat units)
         1           Ni  tau(   1) = (   0.0000000   0.0000000   0.0000000  )
         2           Ni  tau(   2) = (   0.0000000   0.0000000   1.3333318  )

     number of k points=   152  Marzari-Vanderbilt smearing, width (Ry)=  0.0100

     Number of k-points >= 100: set verbosity='high' to print them.

     Dense  grid:    31247 G-vectors     FFT dimensions: (  30,  30,  75)

     Smooth grid:    11037 G-vectors     FFT dimensions: (  20,  20,  54)

     Estimated max dynamical RAM per process >      14.72 MB

     Estimated total dynamical RAM >     353.36 MB

     Check: negative core charge=   -0.000001
     Generating pointlists ...
     new r_m :   0.4125 (alat units)  1.6682 (a.u.) for type    1

     Initial potential from superposition of free atoms

     starting charge      35.9995, renormalised to      36.0000
     Starting wfcs are   20 randomized atomic wfcs +    2 random wfcs

     total cpu time spent up to now is        1.0 secs

     Self-consistent Calculation

     iteration #  1     ecut=    60.00 Ry     beta= 0.70
     Davidson diagonalization with overlap
     ethr =  1.00E-02,  avg # of iterations =  6.5

     total cpu time spent up to now is        5.6 secs

     total energy              =    -673.34378351 Ry
     estimated scf accuracy    <      17.66367675 Ry

     total magnetization       =     8.00 Bohr mag/cell
     absolute magnetization    =     9.66 Bohr mag/cell

     iteration #  2     ecut=    60.00 Ry     beta= 0.70
     Davidson diagonalization with overlap
     ethr =  1.00E-02,  avg # of iterations =  3.1

     total cpu time spent up to now is        9.1 secs

     total energy              =    -677.26200075 Ry
     estimated scf accuracy    <      12.73041613 Ry

     total magnetization       =     1.38 Bohr mag/cell
     absolute magnetization    =     2.09 Bohr mag/cell

     iteration #  3     ecut=    60.00 Ry     beta= 0.70
     Davidson diagonalization with overlap
     ethr =  1.00E-02,  avg # of iterations =  2.0

     total cpu time spent up to now is       12.1 secs

     total energy              =    -678.59581553 Ry
     estimated scf accuracy    <       3.58921160 Ry

     total magnetization       =     2.83 Bohr mag/cell
     absolute magnetization    =     3.78 Bohr mag/cell

     iteration #  4     ecut=    60.00 Ry     beta= 0.70
     Davidson diagonalization with overlap
     ethr =  9.97E-03,  avg # of iterations =  2.4

     total cpu time spent up to now is       15.3 secs

     total energy              =    -679.88377894 Ry
     estimated scf accuracy    <     294.68763770 Ry

     total magnetization       =     1.43 Bohr mag/cell
     absolute magnetization    =    34.63 Bohr mag/cell

     iteration #  5     ecut=    60.00 Ry     beta= 0.70
     Davidson diagonalization with overlap
     ethr =  9.97E-03,  avg # of iterations =  2.0

     negative rho (up, down):  0.000E+00 6.147E-04

     total cpu time spent up to now is       18.2 secs

     total energy              =    -677.91731480 Ry
     estimated scf accuracy    <      93.36937846 Ry

     total magnetization       =     1.86 Bohr mag/cell
     absolute magnetization    =    19.26 Bohr mag/cell

     iteration #  6     ecut=    60.00 Ry     beta= 0.70
     Davidson diagonalization with overlap
     ethr =  9.97E-03,  avg # of iterations =  2.0

     total cpu time spent up to now is       21.0 secs

     total energy              =    -679.18878464 Ry
     estimated scf accuracy    <      13.81683281 Ry

     total magnetization       =     1.55 Bohr mag/cell
     absolute magnetization    =     5.80 Bohr mag/cell

     iteration #  7     ecut=    60.00 Ry     beta= 0.70
     Davidson diagonalization with overlap
     ethr =  9.97E-03,  avg # of iterations =  2.0

     total cpu time spent up to now is       23.9 secs

     total energy              =    -678.48538871 Ry
     estimated scf accuracy    <      95.03027360 Ry

     total magnetization       =     1.36 Bohr mag/cell
     absolute magnetization    =    19.44 Bohr mag/cell

     iteration #  8     ecut=    60.00 Ry     beta= 0.70
     Davidson diagonalization with overlap
     ethr =  9.97E-03,  avg # of iterations =  2.0

     total cpu time spent up to now is       26.8 secs

     total energy              =    -678.75744077 Ry
     estimated scf accuracy    <      14.31198691 Ry

     total magnetization       =     1.49 Bohr mag/cell
     absolute magnetization    =     6.10 Bohr mag/cell

     iteration #  9     ecut=    60.00 Ry     beta= 0.70
     Davidson diagonalization with overlap
     ethr =  9.97E-03,  avg # of iterations =  2.0

     total cpu time spent up to now is       29.5 secs

     total energy              =    -679.12652249 Ry
     estimated scf accuracy    <       1.79368836 Ry

     total magnetization       =     1.54 Bohr mag/cell
     absolute magnetization    =     3.27 Bohr mag/cell

     iteration # 10     ecut=    60.00 Ry     beta= 0.70
     Davidson diagonalization with overlap
     ethr =  4.98E-03,  avg # of iterations =  2.0

     total cpu time spent up to now is       32.2 secs

     total energy              =    -678.77559102 Ry
     estimated scf accuracy    <      19.81372890 Ry

     total magnetization       =     1.48 Bohr mag/cell
     absolute magnetization    =     9.24 Bohr mag/cell

     iteration # 11     ecut=    60.00 Ry     beta= 0.70
     Davidson diagonalization with overlap
     ethr =  4.98E-03,  avg # of iterations =  2.0

     total cpu time spent up to now is       35.1 secs

     total energy              =    -678.98399017 Ry
     estimated scf accuracy    <       8.21262750 Ry

     total magnetization       =     1.62 Bohr mag/cell
     absolute magnetization    =     3.73 Bohr mag/cell

     iteration # 12     ecut=    60.00 Ry     beta= 0.70
     Davidson diagonalization with overlap
     ethr =  4.98E-03,  avg # of iterations =  2.0

     total cpu time spent up to now is       38.0 secs

     total energy              =    -678.66525152 Ry
     estimated scf accuracy    <      23.94427490 Ry

     total magnetization       =     1.39 Bohr mag/cell
     absolute magnetization    =    10.36 Bohr mag/cell

     iteration # 13     ecut=    60.00 Ry     beta= 0.70
     Davidson diagonalization with overlap
     ethr =  4.98E-03,  avg # of iterations =  2.0

     total cpu time spent up to now is       40.8 secs

     total energy              =    -678.99657623 Ry
     estimated scf accuracy    <       0.76001486 Ry

     total magnetization       =     1.62 Bohr mag/cell
     absolute magnetization    =     1.98 Bohr mag/cell

     iteration # 14     ecut=    60.00 Ry     beta= 0.70
     Davidson diagonalization with overlap
     ethr =  2.11E-03,  avg # of iterations =  1.1

     total cpu time spent up to now is       43.1 secs

     total energy              =    -679.00642517 Ry
     estimated scf accuracy    <       0.40733286 Ry

     total magnetization       =     1.61 Bohr mag/cell
     absolute magnetization    =     2.07 Bohr mag/cell

     iteration # 15     ecut=    60.00 Ry     beta= 0.70
     Davidson diagonalization with overlap
     ethr =  1.13E-03,  avg # of iterations =  2.0

     total cpu time spent up to now is       46.0 secs

     total energy              =    -679.13516849 Ry
     estimated scf accuracy    <       4.37354700 Ry

     total magnetization       =     1.52 Bohr mag/cell
     absolute magnetization    =     4.72 Bohr mag/cell

     iteration # 16     ecut=    60.00 Ry     beta= 0.70
     Davidson diagonalization with overlap
     ethr =  1.13E-03,  avg # of iterations =  2.0

     total cpu time spent up to now is       48.8 secs

     total energy              =    -679.06974104 Ry
     estimated scf accuracy    <      13.98347695 Ry

     total magnetization       =     1.49 Bohr mag/cell
     absolute magnetization    =     7.15 Bohr mag/cell

     iteration # 17     ecut=    60.00 Ry     beta= 0.70
     Davidson diagonalization with overlap
     ethr =  1.13E-03,  avg # of iterations =  2.0

     total cpu time spent up to now is       51.6 secs

     total energy              =    -679.13465791 Ry
     estimated scf accuracy    <      14.90443485 Ry

     total magnetization       =     1.45 Bohr mag/cell
     absolute magnetization    =     7.46 Bohr mag/cell

     iteration # 18     ecut=    60.00 Ry     beta= 0.70
     Davidson diagonalization with overlap
     ethr =  1.13E-03,  avg # of iterations =  1.7

     total cpu time spent up to now is       54.1 secs

     total energy              =    -679.24079223 Ry
     estimated scf accuracy    <      11.41918381 Ry

     total magnetization       =     1.48 Bohr mag/cell
     absolute magnetization    =     6.68 Bohr mag/cell

     iteration # 19     ecut=    60.00 Ry     beta= 0.70
     Davidson diagonalization with overlap
     ethr =  1.13E-03,  avg # of iterations =  2.0

     total cpu time spent up to now is       56.9 secs

     total energy              =    -679.33595403 Ry
     estimated scf accuracy    <      22.45836424 Ry

     total magnetization       =     1.37 Bohr mag/cell
     absolute magnetization    =     8.66 Bohr mag/cell

     iteration # 20     ecut=    60.00 Ry     beta= 0.70
     Davidson diagonalization with overlap
     ethr =  1.13E-03,  avg # of iterations =  2.0

     total cpu time spent up to now is       59.8 secs

     total energy              =    -679.07851936 Ry
     estimated scf accuracy    <      34.79263253 Ry

     total magnetization       =     1.38 Bohr mag/cell
     absolute magnetization    =    10.13 Bohr mag/cell

     iteration # 21     ecut=    60.00 Ry     beta= 0.70
     Davidson diagonalization with overlap
     ethr =  1.13E-03,  avg # of iterations =  2.0

     total cpu time spent up to now is       62.8 secs

     total energy              =    -679.24947833 Ry
     estimated scf accuracy    <      22.59939842 Ry

     total magnetization       =     1.37 Bohr mag/cell
     absolute magnetization    =     9.23 Bohr mag/cell

     iteration # 22     ecut=    60.00 Ry     beta= 0.70
     Davidson diagonalization with overlap
     ethr =  1.13E-03,  avg # of iterations =  2.0

     total cpu time spent up to now is       65.8 secs

     total energy              =    -679.12125263 Ry
     estimated scf accuracy    <      37.61953654 Ry

     total magnetization       =     1.38 Bohr mag/cell
     absolute magnetization    =    11.83 Bohr mag/cell

     iteration # 23     ecut=    60.00 Ry     beta= 0.70
     Davidson diagonalization with overlap
     ethr =  1.13E-03,  avg # of iterations =  2.0

     negative rho (up, down):  0.000E+00 1.615E-03

     total cpu time spent up to now is       68.7 secs

     total energy              =    -680.88129312 Ry
     estimated scf accuracy    <      32.14343001 Ry

     total magnetization       =     1.38 Bohr mag/cell
     absolute magnetization    =     9.99 Bohr mag/cell

     iteration # 24     ecut=    60.00 Ry     beta= 0.70
     Davidson diagonalization with overlap
     ethr =  1.13E-03,  avg # of iterations =  3.0

     negative rho (up, down):  9.946E-03 6.866E-03

     total cpu time spent up to now is       72.2 secs

     total energy              =    -676.25702991 Ry
     estimated scf accuracy    <     307.57922002 Ry

     total magnetization       =     1.26 Bohr mag/cell
     absolute magnetization    =    34.53 Bohr mag/cell

     iteration # 25     ecut=    60.00 Ry     beta= 0.70
     Davidson diagonalization with overlap
     ethr =  1.13E-03,  avg # of iterations =  4.1

     negative rho (up, down):  1.997E-02 1.463E-02

     total cpu time spent up to now is       76.6 secs

     total energy              =    -678.55332298 Ry
     estimated scf accuracy    <     703.73288455 Ry

     total magnetization       =     0.06 Bohr mag/cell
     absolute magnetization    =    46.34 Bohr mag/cell

     iteration # 26     ecut=    60.00 Ry     beta= 0.70
     Davidson diagonalization with overlap
     ethr =  1.13E-03,  avg # of iterations =  3.0

     negative rho (up, down):  1.205E-02 2.555E-02

     total cpu time spent up to now is       80.2 secs

     total energy              =    -675.92167527 Ry
     estimated scf accuracy    <     246.79678636 Ry

     total magnetization       =     0.25 Bohr mag/cell
     absolute magnetization    =    26.59 Bohr mag/cell

     iteration # 27     ecut=    60.00 Ry     beta= 0.70
     Davidson diagonalization with overlap
     ethr =  1.13E-03,  avg # of iterations =  4.4

     negative rho (up, down):  5.971E-03 3.139E-01

     total cpu time spent up to now is       84.6 secs

     total energy              =    -672.58634317 Ry
     estimated scf accuracy    <     887.31729620 Ry

     total magnetization       =     0.61 Bohr mag/cell
     absolute magnetization    =    50.94 Bohr mag/cell

     iteration # 28     ecut=    60.00 Ry     beta= 0.70
     Davidson diagonalization with overlap
     ethr =  1.13E-03,  avg # of iterations =  4.3

     negative rho (up, down):  4.329E-03 3.694E-01

     total cpu time spent up to now is       89.3 secs

     total energy              =    -707.60053794 Ry
     estimated scf accuracy    <     927.24357712 Ry

     total magnetization       =     1.09 Bohr mag/cell
     absolute magnetization    =    49.97 Bohr mag/cell

     iteration # 29     ecut=    60.00 Ry     beta= 0.70
     Davidson diagonalization with overlap
     ethr =  1.13E-03,  avg # of iterations =  4.0

     negative rho (up, down):  2.878E-02 3.369E-01

     total cpu time spent up to now is       93.6 secs

     total energy              =    -712.18521313 Ry
     estimated scf accuracy    <    1302.86587800 Ry

     total magnetization       =     1.61 Bohr mag/cell
     absolute magnetization    =    63.18 Bohr mag/cell

     iteration # 30     ecut=    60.00 Ry     beta= 0.70
     Davidson diagonalization with overlap
     ethr =  1.13E-03,  avg # of iterations =  3.5

     negative rho (up, down):  1.972E-02 8.322E-02

     total cpu time spent up to now is       97.4 secs

     total energy              =    -672.90290747 Ry
     estimated scf accuracy    <    1331.70544290 Ry

     total magnetization       =     1.13 Bohr mag/cell
     absolute magnetization    =    59.19 Bohr mag/cell

     iteration # 31     ecut=    60.00 Ry     beta= 0.70
     Davidson diagonalization with overlap
     ethr =  1.13E-03,  avg # of iterations =  3.6

     negative rho (up, down):  1.645E-02 7.200E-02

     total cpu time spent up to now is      101.7 secs

     total energy              =    -690.10877111 Ry
     estimated scf accuracy    <     553.07458815 Ry

     total magnetization       =     1.59 Bohr mag/cell
     absolute magnetization    =    43.04 Bohr mag/cell

     iteration # 32     ecut=    60.00 Ry     beta= 0.70
     Davidson diagonalization with overlap
     ethr =  1.13E-03,  avg # of iterations =  2.7

     negative rho (up, down):  8.517E-01 8.560E-01

     total cpu time spent up to now is      105.0 secs

     total energy              =    -682.06347375 Ry
     estimated scf accuracy    <     680.98230780 Ry

     total magnetization       =     1.24 Bohr mag/cell
     absolute magnetization    =    49.10 Bohr mag/cell

     iteration # 33     ecut=    60.00 Ry     beta= 0.70
     Davidson diagonalization with overlap
     ethr =  1.13E-03,  avg # of iterations =  7.1

     negative rho (up, down):  1.733E+00 9.028E-01

     total cpu time spent up to now is      111.6 secs

     total energy              =    -806.50001772 Ry
     estimated scf accuracy    <    2826.32811272 Ry

     total magnetization       =     0.25 Bohr mag/cell
     absolute magnetization    =    92.80 Bohr mag/cell

     iteration # 34     ecut=    60.00 Ry     beta= 0.70
     Davidson diagonalization with overlap
     ethr =  1.13E-03,  avg # of iterations =  8.2

     negative rho (up, down):  9.862E-01 9.517E-01

     total cpu time spent up to now is      118.8 secs

     total energy              =    -707.01992071 Ry
     estimated scf accuracy    <    3545.69099779 Ry

     total magnetization       =    -0.02 Bohr mag/cell
     absolute magnetization    =    67.28 Bohr mag/cell

     iteration # 35     ecut=    60.00 Ry     beta= 0.70
     Davidson diagonalization with overlap
     ethr =  1.13E-03,  avg # of iterations =  6.3

     negative rho (up, down):  2.301E+00 2.734E+00

     total cpu time spent up to now is      124.9 secs

     total energy              =    -735.38394908 Ry
     estimated scf accuracy    <    2624.63778275 Ry

     total magnetization       =     0.01 Bohr mag/cell
     absolute magnetization    =    79.41 Bohr mag/cell

     iteration # 36     ecut=    60.00 Ry     beta= 0.70
     Davidson diagonalization with overlap
     ethr =  1.13E-03,  avg # of iterations =  9.2

     negative rho (up, down):  2.456E+00 2.727E+00

     total cpu time spent up to now is      132.7 secs

     total energy              =    -821.40154138 Ry
     estimated scf accuracy    <    3612.06974139 Ry

     total magnetization       =    -0.03 Bohr mag/cell
     absolute magnetization    =    79.61 Bohr mag/cell

     iteration # 37     ecut=    60.00 Ry     beta= 0.70
     Davidson diagonalization with overlap
     ethr =  1.13E-03,  avg # of iterations =  5.7

     negative rho (up, down):  2.294E+00 1.885E+00

     total cpu time spent up to now is      138.1 secs

     total energy              =    -600.16608022 Ry
     estimated scf accuracy    <    3054.18871260 Ry

     total magnetization       =    -0.08 Bohr mag/cell
     absolute magnetization    =   101.23 Bohr mag/cell

     iteration # 38     ecut=    60.00 Ry     beta= 0.70
     Davidson diagonalization with overlap
     ethr =  1.13E-03,  avg # of iterations = 11.1

     negative rho (up, down):  3.045E+00 2.182E+00

     total cpu time spent up to now is      147.4 secs

     total energy              =    -548.26074209 Ry
     estimated scf accuracy    <    4237.51048070 Ry

     total magnetization       =     0.26 Bohr mag/cell
     absolute magnetization    =    43.54 Bohr mag/cell

     iteration # 39     ecut=    60.00 Ry     beta= 0.70
     Davidson diagonalization with overlap
     ethr =  1.13E-03,  avg # of iterations =  8.7

     negative rho (up, down):  2.287E+00 1.012E+00

     total cpu time spent up to now is      155.6 secs

     total energy              =    -865.61561835 Ry
     estimated scf accuracy    <    2456.28940468 Ry

     total magnetization       =     0.04 Bohr mag/cell
     absolute magnetization    =    95.34 Bohr mag/cell

     iteration # 40     ecut=    60.00 Ry     beta= 0.70
     Davidson diagonalization with overlap
     ethr =  1.13E-03,  avg # of iterations =  6.8

     negative rho (up, down):  2.491E+00 3.224E+00

     total cpu time spent up to now is      161.6 secs

     total energy              =    -663.22289862 Ry
     estimated scf accuracy    <    3400.55505734 Ry

     total magnetization       =    -0.12 Bohr mag/cell
     absolute magnetization    =    71.74 Bohr mag/cell

     iteration # 41     ecut=    60.00 Ry     beta= 0.70
     Davidson diagonalization with overlap
     ethr =  1.13E-03,  avg # of iterations =  8.4

     negative rho (up, down):  6.372E+00 6.774E+00

     total cpu time spent up to now is      169.1 secs

     total energy              =    -838.10326263 Ry
     estimated scf accuracy    <    2766.42530749 Ry

     total magnetization       =     0.13 Bohr mag/cell
     absolute magnetization    =    86.74 Bohr mag/cell

     iteration # 42     ecut=    60.00 Ry     beta= 0.70
     Davidson diagonalization with overlap
     ethr =  1.13E-03,  avg # of iterations =  8.0

     negative rho (up, down):  8.125E+00 7.760E+00

     total cpu time spent up to now is      176.4 secs

     total energy              =    -742.83012559 Ry
     estimated scf accuracy    <    2759.71504440 Ry

     total magnetization       =    -0.14 Bohr mag/cell
     absolute magnetization    =    93.31 Bohr mag/cell

     iteration # 43     ecut=    60.00 Ry     beta= 0.70
     Davidson diagonalization with overlap
     ethr =  1.13E-03,  avg # of iterations =  8.5

     negative rho (up, down):  9.461E+00 1.145E+01

     total cpu time spent up to now is      183.9 secs

     total energy              =    -747.80559135 Ry
     estimated scf accuracy    <    2374.34898422 Ry

     total magnetization       =    -0.04 Bohr mag/cell
     absolute magnetization    =   104.30 Bohr mag/cell

     iteration # 44     ecut=    60.00 Ry     beta= 0.70
     Davidson diagonalization with overlap
     ethr =  1.13E-03,  avg # of iterations = 11.6

     negative rho (up, down):  9.606E+00 8.496E+00

     total cpu time spent up to now is      194.2 secs

     total energy              =    -355.50953920 Ry
     estimated scf accuracy    <    4148.62284351 Ry

     total magnetization       =    -0.23 Bohr mag/cell
     absolute magnetization    =    48.90 Bohr mag/cell

     iteration # 45     ecut=    60.00 Ry     beta= 0.70
     Davidson diagonalization with overlap
     ethr =  1.13E-03,  avg # of iterations = 10.8

     negative rho (up, down):  1.237E+01 9.689E+00

     total cpu time spent up to now is      203.6 secs

     total energy              =    -659.24604605 Ry
     estimated scf accuracy    <    2315.80722675 Ry

     total magnetization       =     0.12 Bohr mag/cell
     absolute magnetization    =   101.78 Bohr mag/cell

     iteration # 46     ecut=    60.00 Ry     beta= 0.70
     Davidson diagonalization with overlap
     ethr =  1.13E-03,  avg # of iterations =  7.6

     negative rho (up, down):  1.112E+01 1.076E+01

     total cpu time spent up to now is      211.0 secs

     total energy              =    -704.90954390 Ry
     estimated scf accuracy    <    2108.55813869 Ry

     total magnetization       =     0.49 Bohr mag/cell
     absolute magnetization    =    95.81 Bohr mag/cell

     iteration # 47     ecut=    60.00 Ry     beta= 0.70
     Davidson diagonalization with overlap
     ethr =  1.13E-03,  avg # of iterations =  7.6

     negative rho (up, down):  1.181E+01 1.170E+01

     total cpu time spent up to now is      218.2 secs

     total energy              =    -708.05263455 Ry
     estimated scf accuracy    <    2146.10163436 Ry

     total magnetization       =    -0.08 Bohr mag/cell
     absolute magnetization    =   104.30 Bohr mag/cell

     iteration # 48     ecut=    60.00 Ry     beta= 0.70
     Davidson diagonalization with overlap
     ethr =  1.13E-03,  avg # of iterations =  6.6

     negative rho (up, down):  1.065E+01 1.111E+01

     total cpu time spent up to now is      224.3 secs

     total energy              =    -780.37567975 Ry
     estimated scf accuracy    <    1440.34245235 Ry

     total magnetization       =     0.04 Bohr mag/cell
     absolute magnetization    =   122.85 Bohr mag/cell

     iteration # 49     ecut=    60.00 Ry     beta= 0.70
     Davidson diagonalization with overlap
     ethr =  1.13E-03,  avg # of iterations =  6.0

     negative rho (up, down):  1.358E+01 1.203E+01

     total cpu time spent up to now is      230.0 secs

     total energy              =    -720.70884075 Ry
     estimated scf accuracy    <    1836.33915435 Ry

     total magnetization       =    -0.11 Bohr mag/cell
     absolute magnetization    =   107.87 Bohr mag/cell

     iteration # 50     ecut=    60.00 Ry     beta= 0.70
     Davidson diagonalization with overlap
     ethr =  1.13E-03,  avg # of iterations =  8.0

     negative rho (up, down):  1.218E+01 1.305E+01

     total cpu time spent up to now is      237.1 secs

     total energy              =    -622.19972823 Ry
     estimated scf accuracy    <    2294.72886533 Ry

     total magnetization       =    -0.09 Bohr mag/cell
     absolute magnetization    =    85.85 Bohr mag/cell

     iteration # 51     ecut=    60.00 Ry     beta= 0.70
     Davidson diagonalization with overlap
     ethr =  1.13E-03,  avg # of iterations =  7.6

     negative rho (up, down):  1.061E+01 1.150E+01

     total cpu time spent up to now is      243.6 secs

     total energy              =    -760.17047265 Ry
     estimated scf accuracy    <    1277.94968512 Ry

     total magnetization       =    -0.36 Bohr mag/cell
     absolute magnetization    =   122.07 Bohr mag/cell

     iteration # 52     ecut=    60.00 Ry     beta= 0.70
     Davidson diagonalization with overlap
     ethr =  1.13E-03,  avg # of iterations =  6.0

     negative rho (up, down):  1.359E+01 1.642E+01

     total cpu time spent up to now is      249.1 secs

     total energy              =    -631.19295614 Ry
     estimated scf accuracy    <    1615.74043473 Ry

     total magnetization       =    -0.33 Bohr mag/cell
     absolute magnetization    =   116.99 Bohr mag/cell

     iteration # 53     ecut=    60.00 Ry     beta= 0.70
     Davidson diagonalization with overlap
     ethr =  1.13E-03,  avg # of iterations =  8.9

     negative rho (up, down):  1.568E+01 1.887E+01

     total cpu time spent up to now is      257.3 secs

     total energy              =    -566.81083773 Ry
     estimated scf accuracy    <    2824.00671605 Ry

     total magnetization       =    -0.34 Bohr mag/cell
     absolute magnetization    =    85.34 Bohr mag/cell

     iteration # 54     ecut=    60.00 Ry     beta= 0.70
     Davidson diagonalization with overlap
     ethr =  1.13E-03,  avg # of iterations = 10.2

     negative rho (up, down):  1.626E+01 1.578E+01

     total cpu time spent up to now is      266.2 secs

     total energy              =    -543.02357270 Ry
     estimated scf accuracy    <    3496.55719310 Ry

     total magnetization       =    -0.56 Bohr mag/cell
     absolute magnetization    =    66.70 Bohr mag/cell

     iteration # 55     ecut=    60.00 Ry     beta= 0.70
     Davidson diagonalization with overlap
     ethr =  1.13E-03,  avg # of iterations =  7.6

     negative rho (up, down):  1.560E+01 1.432E+01

     total cpu time spent up to now is      273.2 secs

     total energy              =    -714.96869768 Ry
     estimated scf accuracy    <     839.33793708 Ry

     total magnetization       =     0.01 Bohr mag/cell
     absolute magnetization    =   124.53 Bohr mag/cell

     iteration # 56     ecut=    60.00 Ry     beta= 0.70
     Davidson diagonalization with overlap
     ethr =  1.13E-03,  avg # of iterations =  5.7

     negative rho (up, down):  1.683E+01 1.585E+01

     total cpu time spent up to now is      278.9 secs

     total energy              =    -715.25948669 Ry
     estimated scf accuracy    <     775.49715990 Ry

     total magnetization       =     0.22 Bohr mag/cell
     absolute magnetization    =   121.60 Bohr mag/cell

     iteration # 57     ecut=    60.00 Ry     beta= 0.70
     Davidson diagonalization with overlap
     ethr =  1.13E-03,  avg # of iterations =  6.1

     negative rho (up, down):  1.614E+01 1.572E+01

     total cpu time spent up to now is      284.8 secs

     total energy              =    -698.63867243 Ry
     estimated scf accuracy    <     957.81614372 Ry

     total magnetization       =    -0.04 Bohr mag/cell
     absolute magnetization    =   116.07 Bohr mag/cell

     iteration # 58     ecut=    60.00 Ry     beta= 0.70
     Davidson diagonalization with overlap
     ethr =  1.13E-03,  avg # of iterations =  5.6

     negative rho (up, down):  1.666E+01 1.637E+01

     total cpu time spent up to now is      290.3 secs

     total energy              =    -727.52369895 Ry
     estimated scf accuracy    <     789.14583959 Ry

     total magnetization       =    -0.08 Bohr mag/cell
     absolute magnetization    =   125.76 Bohr mag/cell

     iteration # 59     ecut=    60.00 Ry     beta= 0.70
     Davidson diagonalization with overlap
     ethr =  1.13E-03,  avg # of iterations =  5.8

     negative rho (up, down):  1.963E+01 1.533E+01

     total cpu time spent up to now is      295.8 secs

     total energy              =    -606.19489859 Ry
     estimated scf accuracy    <    1107.35154961 Ry

     total magnetization       =    -0.23 Bohr mag/cell
     absolute magnetization    =   118.05 Bohr mag/cell

     iteration # 60     ecut=    60.00 Ry     beta= 0.70
     Davidson diagonalization with overlap
     ethr =  1.13E-03,  avg # of iterations = 10.4

     negative rho (up, down):  1.738E+01 1.670E+01

     total cpu time spent up to now is      304.1 secs

     total energy              =    -545.14383259 Ry
     estimated scf accuracy    <    3448.55070304 Ry

     total magnetization       =    -0.05 Bohr mag/cell
     absolute magnetization    =    73.11 Bohr mag/cell

     iteration # 61     ecut=    60.00 Ry     beta= 0.70
     Davidson diagonalization with overlap
     ethr =  1.13E-03,  avg # of iterations =  7.2

     negative rho (up, down):  1.647E+01 1.666E+01

     total cpu time spent up to now is      310.8 secs

     total energy              =    -702.18859076 Ry
     estimated scf accuracy    <     599.47685252 Ry

     total magnetization       =     0.27 Bohr mag/cell
     absolute magnetization    =   128.50 Bohr mag/cell

     iteration # 62     ecut=    60.00 Ry     beta= 0.70
     Davidson diagonalization with overlap
     ethr =  1.13E-03,  avg # of iterations =  5.2

     negative rho (up, down):  2.041E+01 2.176E+01

     total cpu time spent up to now is      315.8 secs

     total energy              =    -660.13878869 Ry
     estimated scf accuracy    <     708.09061197 Ry

     total magnetization       =    -0.55 Bohr mag/cell
     absolute magnetization    =   128.93 Bohr mag/cell

     iteration # 63     ecut=    60.00 Ry     beta= 0.70
     Davidson diagonalization with overlap
     ethr =  1.13E-03,  avg # of iterations =  5.6

     negative rho (up, down):  2.128E+01 2.296E+01

     total cpu time spent up to now is      321.4 secs

     total energy              =    -637.31899820 Ry
     estimated scf accuracy    <     485.41566190 Ry

     total magnetization       =    -0.26 Bohr mag/cell
     absolute magnetization    =   121.23 Bohr mag/cell

     iteration # 64     ecut=    60.00 Ry     beta= 0.70
     Davidson diagonalization with overlap
     ethr =  1.13E-03,  avg # of iterations =  8.9

     negative rho (up, down):  1.889E+01 1.876E+01

     total cpu time spent up to now is      329.4 secs

     total energy              =    -480.49933100 Ry
     estimated scf accuracy    <    4566.60340441 Ry

     total magnetization       =    -0.54 Bohr mag/cell
     absolute magnetization    =    51.67 Bohr mag/cell

     iteration # 65     ecut=    60.00 Ry     beta= 0.70
     Davidson diagonalization with overlap
     ethr =  1.13E-03,  avg # of iterations =  7.6

     negative rho (up, down):  1.918E+01 1.895E+01

     total cpu time spent up to now is      336.6 secs

     total energy              =    -683.30235004 Ry
     estimated scf accuracy    <     462.27035236 Ry

     total magnetization       =    -0.08 Bohr mag/cell
     absolute magnetization    =   129.90 Bohr mag/cell

     iteration # 66     ecut=    60.00 Ry     beta= 0.70
     Davidson diagonalization with overlap
     ethr =  1.13E-03,  avg # of iterations =  5.0

     negative rho (up, down):  1.987E+01 1.859E+01

     total cpu time spent up to now is      341.6 secs

     total energy              =    -670.61695246 Ry
     estimated scf accuracy    <     404.09785893 Ry

     total magnetization       =     0.09 Bohr mag/cell
     absolute magnetization    =   130.16 Bohr mag/cell

     iteration # 67     ecut=    60.00 Ry     beta= 0.70
     Davidson diagonalization with overlap
     ethr =  1.13E-03,  avg # of iterations =  6.7

     negative rho (up, down):  2.027E+01 2.067E+01

     total cpu time spent up to now is      348.0 secs

     total energy              =    -633.63073259 Ry
     estimated scf accuracy    <    1282.36331077 Ry

     total magnetization       =     0.13 Bohr mag/cell
     absolute magnetization    =   111.99 Bohr mag/cell

     iteration # 68     ecut=    60.00 Ry     beta= 0.70
     Davidson diagonalization with overlap
     ethr =  1.13E-03,  avg # of iterations =  6.8

     negative rho (up, down):  1.977E+01 2.068E+01

     total cpu time spent up to now is      354.2 secs

     total energy              =    -673.33459043 Ry
     estimated scf accuracy    <     281.95001626 Ry

     total magnetization       =     0.04 Bohr mag/cell
     absolute magnetization    =   130.25 Bohr mag/cell

     iteration # 69     ecut=    60.00 Ry     beta= 0.70
     Davidson diagonalization with overlap
     ethr =  1.13E-03,  avg # of iterations =  7.0

     negative rho (up, down):  2.446E+01 2.163E+01

     total cpu time spent up to now is      360.6 secs

     total energy              =    -599.69594373 Ry
     estimated scf accuracy    <     983.28557861 Ry

     total magnetization       =     0.02 Bohr mag/cell
     absolute magnetization    =   113.66 Bohr mag/cell

     iteration # 70     ecut=    60.00 Ry     beta= 0.70
     Davidson diagonalization with overlap
     ethr =  1.13E-03,  avg # of iterations =  7.7

     negative rho (up, down):  2.163E+01 2.211E+01

     total cpu time spent up to now is      367.9 secs

     total energy              =    -562.77702283 Ry
     estimated scf accuracy    <    2166.56313707 Ry

     total magnetization       =    -0.12 Bohr mag/cell
     absolute magnetization    =    85.74 Bohr mag/cell

     iteration # 71     ecut=    60.00 Ry     beta= 0.70
     Davidson diagonalization with overlap
     ethr =  1.13E-03,  avg # of iterations =  6.8

     negative rho (up, down):  2.137E+01 2.165E+01

     total cpu time spent up to now is      374.4 secs

     total energy              =    -667.48463004 Ry
     estimated scf accuracy    <     185.70771821 Ry

     total magnetization       =     0.41 Bohr mag/cell
     absolute magnetization    =   130.44 Bohr mag/cell

     iteration # 72     ecut=    60.00 Ry     beta= 0.70
     Davidson diagonalization with overlap
     ethr =  1.13E-03,  avg # of iterations =  5.6

     negative rho (up, down):  2.228E+01 2.242E+01

     total cpu time spent up to now is      379.8 secs

     total energy              =    -645.68886700 Ry
     estimated scf accuracy    <     530.54922836 Ry

     total magnetization       =    -0.11 Bohr mag/cell
     absolute magnetization    =   124.55 Bohr mag/cell

     iteration # 73     ecut=    60.00 Ry     beta= 0.70
     Davidson diagonalization with overlap
     ethr =  1.13E-03,  avg # of iterations =  5.2

     negative rho (up, down):  2.563E+01 2.576E+01

     total cpu time spent up to now is      385.1 secs

     total energy              =    -637.06300470 Ry
     estimated scf accuracy    <     154.24785693 Ry

     total magnetization       =    -0.25 Bohr mag/cell
     absolute magnetization    =   131.40 Bohr mag/cell

     iteration # 74     ecut=    60.00 Ry     beta= 0.70
     Davidson diagonalization with overlap
     ethr =  1.13E-03,  avg # of iterations =  4.9

     negative rho (up, down):  2.448E+01 2.475E+01

     total cpu time spent up to now is      390.1 secs

     total energy              =    -637.95798689 Ry
     estimated scf accuracy    <     137.32090395 Ry

     total magnetization       =    -0.14 Bohr mag/cell
     absolute magnetization    =   122.37 Bohr mag/cell

     iteration # 75     ecut=    60.00 Ry     beta= 0.70
     Davidson diagonalization with overlap
     ethr =  1.13E-03,  avg # of iterations =  5.0

     negative rho (up, down):  2.347E+01 2.458E+01

     total cpu time spent up to now is      395.0 secs

     total energy              =    -644.15115648 Ry
     estimated scf accuracy    <     104.04273165 Ry

     total magnetization       =    -0.00 Bohr mag/cell
     absolute magnetization    =   130.51 Bohr mag/cell

     iteration # 76     ecut=    60.00 Ry     beta= 0.70
     Davidson diagonalization with overlap
     ethr =  1.13E-03,  avg # of iterations =  5.1

     negative rho (up, down):  2.460E+01 2.463E+01

     total cpu time spent up to now is      400.2 secs

     total energy              =    -636.06171560 Ry
     estimated scf accuracy    <     235.94047589 Ry

     total magnetization       =    -0.09 Bohr mag/cell
     absolute magnetization    =   125.27 Bohr mag/cell

     iteration # 77     ecut=    60.00 Ry     beta= 0.70
     Davidson diagonalization with overlap
     ethr =  1.13E-03,  avg # of iterations =  4.9

     negative rho (up, down):  2.435E+01 2.454E+01

     total cpu time spent up to now is      405.2 secs

     total energy              =    -646.29241036 Ry
     estimated scf accuracy    <      53.96618531 Ry

     total magnetization       =    -0.06 Bohr mag/cell
     absolute magnetization    =   131.34 Bohr mag/cell

     iteration # 78     ecut=    60.00 Ry     beta= 0.70
     Davidson diagonalization with overlap
     ethr =  1.13E-03,  avg # of iterations =  4.4

     negative rho (up, down):  2.627E+01 2.664E+01

     total cpu time spent up to now is      409.4 secs

     total energy              =    -629.70834288 Ry
     estimated scf accuracy    <      98.48402601 Ry

     total magnetization       =    -0.33 Bohr mag/cell
     absolute magnetization    =   130.61 Bohr mag/cell

     iteration # 79     ecut=    60.00 Ry     beta= 0.70
     Davidson diagonalization with overlap
     ethr =  1.13E-03,  avg # of iterations =  5.0

     negative rho (up, down):  2.768E+01 2.680E+01

     total cpu time spent up to now is      414.5 secs

     total energy              =    -613.03545973 Ry
     estimated scf accuracy    <     217.29770083 Ry

     total magnetization       =    -0.09 Bohr mag/cell
     absolute magnetization    =   127.57 Bohr mag/cell

     iteration # 80     ecut=    60.00 Ry     beta= 0.70
     Davidson diagonalization with overlap
     ethr =  1.13E-03,  avg # of iterations =  5.1

     negative rho (up, down):  2.581E+01 2.559E+01

     total cpu time spent up to now is      419.7 secs

     total energy              =    -630.80500306 Ry
     estimated scf accuracy    <      89.14784313 Ry

     total magnetization       =     0.51 Bohr mag/cell
     absolute magnetization    =   126.52 Bohr mag/cell

     iteration # 81     ecut=    60.00 Ry     beta= 0.70
     Davidson diagonalization with overlap
     ethr =  1.13E-03,  avg # of iterations =  5.0

     negative rho (up, down):  2.626E+01 2.631E+01

     total cpu time spent up to now is      424.6 secs

     total energy              =    -632.92525250 Ry
     estimated scf accuracy    <      38.80026774 Ry

     total magnetization       =     0.13 Bohr mag/cell
     absolute magnetization    =   131.24 Bohr mag/cell

     iteration # 82     ecut=    60.00 Ry     beta= 0.70
     Davidson diagonalization with overlap
     ethr =  1.13E-03,  avg # of iterations =  3.6

     negative rho (up, down):  2.635E+01 2.634E+01

     total cpu time spent up to now is      428.4 secs

     total energy              =    -631.90594581 Ry
     estimated scf accuracy    <      29.21866987 Ry

     total magnetization       =    -0.01 Bohr mag/cell
     absolute magnetization    =   131.30 Bohr mag/cell

     iteration # 83     ecut=    60.00 Ry     beta= 0.70
     Davidson diagonalization with overlap
     ethr =  1.13E-03,  avg # of iterations =  3.7

     negative rho (up, down):  2.759E+01 2.775E+01

     total cpu time spent up to now is      432.0 secs

     total energy              =    -623.23717364 Ry
     estimated scf accuracy    <      11.86304640 Ry

     total magnetization       =     0.04 Bohr mag/cell
     absolute magnetization    =   131.62 Bohr mag/cell

     iteration # 84     ecut=    60.00 Ry     beta= 0.70
     Davidson diagonalization with overlap
     ethr =  1.13E-03,  avg # of iterations =  3.7

     negative rho (up, down):  2.716E+01 2.703E+01

     total cpu time spent up to now is      435.9 secs

     total energy              =    -626.24714197 Ry
     estimated scf accuracy    <      15.81013284 Ry

     total magnetization       =    -0.02 Bohr mag/cell
     absolute magnetization    =   130.82 Bohr mag/cell

     iteration # 85     ecut=    60.00 Ry     beta= 0.70
     Davidson diagonalization with overlap
     ethr =  1.13E-03,  avg # of iterations =  3.7

     negative rho (up, down):  2.759E+01 2.780E+01

     total cpu time spent up to now is      439.7 secs

     total energy              =    -622.76085186 Ry
     estimated scf accuracy    <       3.77973236 Ry

     total magnetization       =     0.10 Bohr mag/cell
     absolute magnetization    =   131.57 Bohr mag/cell

     iteration # 86     ecut=    60.00 Ry     beta= 0.70
     Davidson diagonalization with overlap
     ethr =  1.13E-03,  avg # of iterations =  3.6

     negative rho (up, down):  2.753E+01 2.749E+01

     total cpu time spent up to now is      443.2 secs

     total energy              =    -624.03112201 Ry
     estimated scf accuracy    <       2.93561783 Ry

     total magnetization       =    -0.05 Bohr mag/cell
     absolute magnetization    =   131.48 Bohr mag/cell

     iteration # 87     ecut=    60.00 Ry     beta= 0.70
     Davidson diagonalization with overlap
     ethr =  1.13E-03,  avg # of iterations =  3.0

     negative rho (up, down):  2.769E+01 2.758E+01

     total cpu time spent up to now is      446.5 secs

     total energy              =    -623.16444306 Ry
     estimated scf accuracy    <       2.17291913 Ry

     total magnetization       =     0.05 Bohr mag/cell
     absolute magnetization    =   131.65 Bohr mag/cell

     iteration # 88     ecut=    60.00 Ry     beta= 0.70
     Davidson diagonalization with overlap
     ethr =  1.13E-03,  avg # of iterations =  4.0

     negative rho (up, down):  2.765E+01 2.764E+01

     total cpu time spent up to now is      450.3 secs

     total energy              =    -622.57200711 Ry
     estimated scf accuracy    <      17.37317962 Ry

     total magnetization       =     0.21 Bohr mag/cell
     absolute magnetization    =   131.38 Bohr mag/cell

     iteration # 89     ecut=    60.00 Ry     beta= 0.70
     Davidson diagonalization with overlap
     ethr =  1.13E-03,  avg # of iterations =  3.9

     negative rho (up, down):  2.757E+01 2.766E+01

     total cpu time spent up to now is      454.0 secs

     total energy              =    -623.45826633 Ry
     estimated scf accuracy    <       0.84199584 Ry

     total magnetization       =     0.07 Bohr mag/cell
     absolute magnetization    =   131.66 Bohr mag/cell

     iteration # 90     ecut=    60.00 Ry     beta= 0.70
     Davidson diagonalization with overlap
     ethr =  1.13E-03,  avg # of iterations =  2.0

     negative rho (up, down):  2.766E+01 2.766E+01

     total cpu time spent up to now is      456.9 secs

     total energy              =    -623.18252944 Ry
     estimated scf accuracy    <       0.68054517 Ry

     total magnetization       =    -0.03 Bohr mag/cell
     absolute magnetization    =   131.66 Bohr mag/cell

     iteration # 91     ecut=    60.00 Ry     beta= 0.70
     Davidson diagonalization with overlap
     ethr =  1.13E-03,  avg # of iterations =  2.0

     negative rho (up, down):  2.764E+01 2.763E+01

     total cpu time spent up to now is      459.8 secs

     total energy              =    -623.36595837 Ry
     estimated scf accuracy    <       0.94701057 Ry

     total magnetization       =    -0.01 Bohr mag/cell
     absolute magnetization    =   131.66 Bohr mag/cell

     iteration # 92     ecut=    60.00 Ry     beta= 0.70
     Davidson diagonalization with overlap
     ethr =  1.13E-03,  avg # of iterations =  2.0

     negative rho (up, down):  2.763E+01 2.766E+01

     total cpu time spent up to now is      462.4 secs

     total energy              =    -623.29558721 Ry
     estimated scf accuracy    <       0.32579439 Ry

     total magnetization       =     0.01 Bohr mag/cell
     absolute magnetization    =   131.68 Bohr mag/cell

     iteration # 93     ecut=    60.00 Ry     beta= 0.70
     Davidson diagonalization with overlap
     ethr =  9.05E-04,  avg # of iterations =  2.0

     negative rho (up, down):  2.764E+01 2.762E+01

     total cpu time spent up to now is      465.0 secs

     total energy              =    -623.41510129 Ry
     estimated scf accuracy    <       0.03714777 Ry

     total magnetization       =     0.01 Bohr mag/cell
     absolute magnetization    =   131.68 Bohr mag/cell

     iteration # 94     ecut=    60.00 Ry     beta= 0.70
     Davidson diagonalization with overlap
     ethr =  1.03E-04,  avg # of iterations =  2.2

     negative rho (up, down):  2.764E+01 2.764E+01

     total cpu time spent up to now is      468.0 secs

     total energy              =    -623.36730335 Ry
     estimated scf accuracy    <       0.12660244 Ry

     total magnetization       =     0.02 Bohr mag/cell
     absolute magnetization    =   131.68 Bohr mag/cell

     iteration # 95     ecut=    60.00 Ry     beta= 0.70
     Davidson diagonalization with overlap
     ethr =  1.03E-04,  avg # of iterations =  2.0

     negative rho (up, down):  2.763E+01 2.764E+01

     total cpu time spent up to now is      470.8 secs

     total energy              =    -623.37970336 Ry
     estimated scf accuracy    <       0.00092253 Ry

     total magnetization       =     0.01 Bohr mag/cell
     absolute magnetization    =   131.69 Bohr mag/cell

     iteration # 96     ecut=    60.00 Ry     beta= 0.70
     Davidson diagonalization with overlap
     ethr =  2.56E-06,  avg # of iterations =  4.1

     negative rho (up, down):  2.764E+01 2.764E+01

     total cpu time spent up to now is      474.1 secs

     total energy              =    -623.38115607 Ry
     estimated scf accuracy    <       0.00042492 Ry

     total magnetization       =     0.01 Bohr mag/cell
     absolute magnetization    =   131.69 Bohr mag/cell

     iteration # 97     ecut=    60.00 Ry     beta= 0.70
     Davidson diagonalization with overlap
     ethr =  1.18E-06,  avg # of iterations =  1.8

     negative rho (up, down):  2.764E+01 2.764E+01

     total cpu time spent up to now is      476.6 secs

     total energy              =    -623.38287652 Ry
     estimated scf accuracy    <       0.00002163 Ry

     total magnetization       =     0.00 Bohr mag/cell
     absolute magnetization    =   131.68 Bohr mag/cell

     iteration # 98     ecut=    60.00 Ry     beta= 0.70
     Davidson diagonalization with overlap
     ethr =  6.01E-08,  avg # of iterations =  5.3

     negative rho (up, down):  2.764E+01 2.764E+01

     total cpu time spent up to now is      480.5 secs

     total energy              =    -623.38320195 Ry
     estimated scf accuracy    <       0.00000214 Ry

     total magnetization       =     0.00 Bohr mag/cell
     absolute magnetization    =   131.68 Bohr mag/cell

     iteration # 99     ecut=    60.00 Ry     beta= 0.70
     Davidson diagonalization with overlap
     ethr =  5.94E-09,  avg # of iterations =  2.9

     negative rho (up, down):  2.764E+01 2.764E+01

     total cpu time spent up to now is      483.8 secs

     total energy              =    -623.38336984 Ry
     estimated scf accuracy    <       0.00000434 Ry

     total magnetization       =     0.00 Bohr mag/cell
     absolute magnetization    =   131.68 Bohr mag/cell

     iteration #100     ecut=    60.00 Ry     beta= 0.70
     Davidson diagonalization with overlap
     ethr =  5.94E-09,  avg # of iterations =  2.0

     negative rho (up, down):  2.764E+01 2.764E+01

     total cpu time spent up to now is      486.6 secs

     total energy              =    -623.38322224 Ry
     estimated scf accuracy    <       0.00000276 Ry

     total magnetization       =     0.00 Bohr mag/cell
     absolute magnetization    =   131.68 Bohr mag/cell

     End of self-consistent calculation

     convergence NOT achieved after 100 iterations: stopping

     Writing config to output data dir ./out/pwscf.save/

     init_run     :      0.71s CPU      0.89s WALL (       1 calls)
     electrons    :    377.60s CPU    485.63s WALL (       1 calls)

     Called by init_run:
     wfcinit      :      0.61s CPU      0.75s WALL (       1 calls)
     potinit      :      0.02s CPU      0.03s WALL (       1 calls)
     hinit0       :      0.06s CPU      0.10s WALL (       1 calls)

     Called by electrons:
     c_bands      :    351.31s CPU    452.14s WALL (     100 calls)
     sum_band     :     25.01s CPU     32.07s WALL (     100 calls)
     v_of_rho     :      0.60s CPU      0.64s WALL (     101 calls)
     newd         :      0.54s CPU      0.57s WALL (     101 calls)
     mix_rho      :      0.08s CPU      0.15s WALL (     100 calls)

     Called by c_bands:
     init_us_2    :      0.91s CPU      1.18s WALL (   61104 calls)
     init_us_2:cp :      0.85s CPU      1.11s WALL (   61104 calls)
     cegterg      :    346.02s CPU    445.15s WALL (   30400 calls)

     Called by *egterg:
     cdiaghg      :     97.37s CPU    126.14s WALL (  177975 calls)
     h_psi        :    167.55s CPU    220.05s WALL (  178279 calls)
     s_psi        :      9.60s CPU     11.98s WALL (  178279 calls)
     g_psi        :      0.45s CPU      0.52s WALL (  147575 calls)

     Called by h_psi:
     h_psi:calbec :     11.58s CPU     15.22s WALL (  178279 calls)
     vloc_psi     :    145.69s CPU    191.71s WALL (  178279 calls)
     add_vuspsi   :      9.51s CPU     12.17s WALL (  178279 calls)

     General routines
     calbec       :     13.94s CPU     18.30s WALL (  208679 calls)
     fft          :      0.26s CPU      0.34s WALL (    2523 calls)
     ffts         :      0.02s CPU      0.02s WALL (     402 calls)
     fftw         :    158.75s CPU    208.48s WALL ( 5748078 calls)
     interpolate  :      0.03s CPU      0.03s WALL (     202 calls)
     davcio       :      0.00s CPU      0.00s WALL (      18 calls)

     Parallel routines

     PWSCF        :   6m18.44s CPU   8m 6.70s WALL


   This run was terminated on:  16:48: 5  23Jun2023            

=------------------------------------------------------------------------------=
   JOB DONE.
=------------------------------------------------------------------------------=
Note: The following floating-point exceptions are signalling: IEEE_DENORMAL
Note: The following floating-point exceptions are signalling: IEEE_DENORMAL
Note: The following floating-point exceptions are signalling: IEEE_DENORMAL
Note: The following floating-point exceptions are signalling: IEEE_DENORMAL
Note: The following floating-point exceptions are signalling: IEEE_DENORMAL
Note: The following floating-point exceptions are signalling: IEEE_DENORMAL
Note: The following floating-point exceptions are signalling: IEEE_DENORMAL
Note: The following floating-point exceptions are signalling: IEEE_DENORMAL
Note: The following floating-point exceptions are signalling: IEEE_DENORMAL
Note: The following floating-point exceptions are signalling: IEEE_DENORMAL
Note: The following floating-point exceptions are signalling: IEEE_DENORMAL
Note: The following floating-point exceptions are signalling: IEEE_DENORMAL
Note: The following floating-point exceptions are signalling: IEEE_DENORMAL
