Ignoring PCI device with non-16bit domain.
Pass --enable-32bits-pci-domain to configure to support such devices
(warning: it would break the library ABI, don't enable unless really needed).

     Program PWSCF v.7.1 starts on 18Jun2023 at 15:36: 6 

     This program is part of the open-source Quantum ESPRESSO suite
     for quantum simulation of materials; please cite
         "P. Giannozzi et al., J. Phys.:Condens. Matter 21 395502 (2009);
         "P. Giannozzi et al., J. Phys.:Condens. Matter 29 465901 (2017);
         "P. Giannozzi et al., J. Chem. Phys. 152 154105 (2020);
          URL http://www.quantum-espresso.org", 
     in publications or presentations arising from this work. More details at
     http://www.quantum-espresso.org/quote

     Parallel version (MPI), running on    24 processors

     MPI processes distributed on     1 nodes
     9654 MiB available memory on the printing compute node when the environment starts

     Reading input from Ni_orthorhombic_boco_atoms.in

     Current dimensions of program PWSCF are:
     Max number of different atomic species (ntypx) = 10
     Max number of k-points (npk) =  40000
     Max angular momentum in pseudopotentials (lmaxx) =  4

     K-points division:     npool     =       3
     R & G space division:  proc/nbgrp/npool/nimage =       8
     Subspace diagonalization in iterative solution of the eigenvalue problem:
     a serial algorithm will be used


     Parallelization info
     --------------------
     sticks:   dense  smooth     PW     G-vecs:    dense   smooth      PW
     Min          72      35     14                 1005      354      94
     Max          73      36     15                 1006      357      95
     Sum         581     287    119                 8045     2847     759

     Using Slab Decomposition



     bravais-lattice index     =            0
     lattice parameter (alat)  =       3.9315  a.u.
     unit-cell volume          =      45.1797 (a.u.)^3
     number of atoms/cell      =            1
     number of atomic types    =            1
     number of electrons       =        18.00
     number of Kohn-Sham states=           13
     kinetic-energy cutoff     =      60.0000  Ry
     charge density cutoff     =     480.0000  Ry
     scf convergence threshold =      1.0E-06
     mixing beta               =       0.7000
     number of iterations used =            8  TF        mixing
     energy convergence thresh.=      1.0E-05
     force convergence thresh. =      1.0E-04
     press convergence thresh. =      5.0E-01
     Exchange-correlation= PBE
                           (   1   4   3   4   0   0   0)
     nstep                     =           50


     celldm(1)=   3.931537  celldm(2)=   0.000000  celldm(3)=   0.000000
     celldm(4)=   0.000000  celldm(5)=   0.000000  celldm(6)=   0.000000

     crystal axes: (cart. coord. in units of alat)
               a(1) = (   1.000000   0.000000   0.000000 )  
               a(2) = (  -0.181601   0.983372   0.000000 )  
               a(3) = (  -0.302669  -0.580356   0.756028 )  

     reciprocal axes: (cart. coord. in units 2 pi/alat)
               b(1) = (  1.000000  0.184671  0.542102 )  
               b(2) = ( -0.000000  1.016909  0.780618 )  
               b(3) = (  0.000000 -0.000000  1.322702 )  


     PseudoPot. # 1 for Ni read from file:
     /home/jmgoff/work/automation/qe_pseudos/Ni.upf
     MD5 check sum: caf20d35bef94d268ef04de15446df97
     Pseudo is Ultrasoft + core correction, Zval = 18.0
     Generated using 'atomic' code by A. Dal Corso  v.7.1
     Using radial grid of 1195 points,  6 beta functions with: 
                l(1) =   0
                l(2) =   0
                l(3) =   1
                l(4) =   1
                l(5) =   2
                l(6) =   2
     Q(r) pseudized with 0 coefficients 


     atomic species   valence    mass     pseudopotential
        Ni            18.00    58.69340     Ni( 1.00)

     Starting magnetic structure 
     atomic species   magnetization
        Ni           1.000

     No symmetry found



   Cartesian axes

     site n.     atom                  positions (alat units)
         1           Ni  tau(   1) = (   0.0000000   0.0000000   0.0000000  )

     number of k points=   666  Marzari-Vanderbilt smearing, width (Ry)=  0.0100

     Number of k-points >= 100: set verbosity='high' to print them.

     Dense  grid:     8045 G-vectors     FFT dimensions: (  27,  27,  27)

     Smooth grid:     2847 G-vectors     FFT dimensions: (  20,  20,  20)

     Estimated max dynamical RAM per process >       9.49 MB

     Estimated total dynamical RAM >     219.88 MB

     Check: negative core charge=   -0.000002
     Generating pointlists ...
     new r_m :   0.4060 (alat units)  1.5960 (a.u.) for type    1

     Initial potential from superposition of free atoms

     starting charge      17.9998, renormalised to      18.0000
     Starting wfcs are   10 randomized atomic wfcs +    3 random wfcs

     total cpu time spent up to now is        0.7 secs

     Self-consistent Calculation

     iteration #  1     ecut=    60.00 Ry     beta= 0.70
     Davidson diagonalization with overlap
     ethr =  1.00E-02,  avg # of iterations =  5.0

     total cpu time spent up to now is        3.2 secs

     total energy              =    -336.20635264 Ry
     estimated scf accuracy    <       7.76337145 Ry

     total magnetization       =     4.97 Bohr mag/cell
     absolute magnetization    =     4.97 Bohr mag/cell

     iteration #  2     ecut=    60.00 Ry     beta= 0.70
     Davidson diagonalization with overlap
     ethr =  1.00E-02,  avg # of iterations =  1.6

     total cpu time spent up to now is        4.7 secs

     total energy              =    -338.96117905 Ry
     estimated scf accuracy    <       2.87369580 Ry

     total magnetization       =     1.34 Bohr mag/cell
     absolute magnetization    =     1.54 Bohr mag/cell

     iteration #  3     ecut=    60.00 Ry     beta= 0.70
     Davidson diagonalization with overlap
     ethr =  1.00E-02,  avg # of iterations =  1.5

     total cpu time spent up to now is        6.3 secs

     total energy              =    -339.37136838 Ry
     estimated scf accuracy    <       0.45718811 Ry

     total magnetization       =     1.05 Bohr mag/cell
     absolute magnetization    =     1.31 Bohr mag/cell

     iteration #  4     ecut=    60.00 Ry     beta= 0.70
     Davidson diagonalization with overlap
     ethr =  2.54E-03,  avg # of iterations =  2.0

     total cpu time spent up to now is        8.0 secs

     total energy              =    -338.05676650 Ry
     estimated scf accuracy    <      85.93338483 Ry

     total magnetization       =     0.32 Bohr mag/cell
     absolute magnetization    =    13.38 Bohr mag/cell

     iteration #  5     ecut=    60.00 Ry     beta= 0.70
     Davidson diagonalization with overlap
     ethr =  2.54E-03,  avg # of iterations =  2.0

     total cpu time spent up to now is        9.6 secs

     total energy              =    -339.36753604 Ry
     estimated scf accuracy    <       0.06690313 Ry

     total magnetization       =     0.55 Bohr mag/cell
     absolute magnetization    =     0.68 Bohr mag/cell

     iteration #  6     ecut=    60.00 Ry     beta= 0.70
     Davidson diagonalization with overlap
     ethr =  3.72E-04,  avg # of iterations =  2.1

     total cpu time spent up to now is       11.3 secs

     total energy              =    -339.49794763 Ry
     estimated scf accuracy    <       3.30726154 Ry

     total magnetization       =     0.45 Bohr mag/cell
     absolute magnetization    =     1.88 Bohr mag/cell

     iteration #  7     ecut=    60.00 Ry     beta= 0.70
     Davidson diagonalization with overlap
     ethr =  3.72E-04,  avg # of iterations =  2.0

     total cpu time spent up to now is       13.0 secs

     total energy              =    -339.10462613 Ry
     estimated scf accuracy    <      15.99271181 Ry

     total magnetization       =     0.34 Bohr mag/cell
     absolute magnetization    =     5.73 Bohr mag/cell

     iteration #  8     ecut=    60.00 Ry     beta= 0.70
     Davidson diagonalization with overlap
     ethr =  3.72E-04,  avg # of iterations =  2.0

     total cpu time spent up to now is       14.7 secs

     total energy              =    -339.38233832 Ry
     estimated scf accuracy    <       0.20311043 Ry

     total magnetization       =     0.56 Bohr mag/cell
     absolute magnetization    =     0.96 Bohr mag/cell

     iteration #  9     ecut=    60.00 Ry     beta= 0.70
     Davidson diagonalization with overlap
     ethr =  3.72E-04,  avg # of iterations =  1.9

     total cpu time spent up to now is       16.2 secs

     total energy              =    -339.38567395 Ry
     estimated scf accuracy    <       0.24534402 Ry

     total magnetization       =     0.54 Bohr mag/cell
     absolute magnetization    =     0.98 Bohr mag/cell

     iteration # 10     ecut=    60.00 Ry     beta= 0.70
     Davidson diagonalization with overlap
     ethr =  3.72E-04,  avg # of iterations =  1.0

     total cpu time spent up to now is       17.4 secs

     total energy              =    -339.38122882 Ry
     estimated scf accuracy    <       0.15027398 Ry

     total magnetization       =     0.54 Bohr mag/cell
     absolute magnetization    =     0.84 Bohr mag/cell

     iteration # 11     ecut=    60.00 Ry     beta= 0.70
     Davidson diagonalization with overlap
     ethr =  3.72E-04,  avg # of iterations =  1.5

     total cpu time spent up to now is       18.9 secs

     total energy              =    -339.38380153 Ry
     estimated scf accuracy    <       0.04378357 Ry

     total magnetization       =     0.52 Bohr mag/cell
     absolute magnetization    =     0.67 Bohr mag/cell

     iteration # 12     ecut=    60.00 Ry     beta= 0.70
     Davidson diagonalization with overlap
     ethr =  2.43E-04,  avg # of iterations =  1.0

     total cpu time spent up to now is       20.1 secs

     total energy              =    -339.38418412 Ry
     estimated scf accuracy    <       0.00511790 Ry

     total magnetization       =     0.51 Bohr mag/cell
     absolute magnetization    =     0.55 Bohr mag/cell

     iteration # 13     ecut=    60.00 Ry     beta= 0.70
     Davidson diagonalization with overlap
     ethr =  2.84E-05,  avg # of iterations =  1.1

     total cpu time spent up to now is       21.4 secs

     total energy              =    -339.38425547 Ry
     estimated scf accuracy    <       0.00178629 Ry

     total magnetization       =     0.51 Bohr mag/cell
     absolute magnetization    =     0.55 Bohr mag/cell

     iteration # 14     ecut=    60.00 Ry     beta= 0.70
     Davidson diagonalization with overlap
     ethr =  9.92E-06,  avg # of iterations =  1.1

     total cpu time spent up to now is       22.7 secs

     total energy              =    -339.38429669 Ry
     estimated scf accuracy    <       0.00035775 Ry

     total magnetization       =     0.49 Bohr mag/cell
     absolute magnetization    =     0.53 Bohr mag/cell

     iteration # 15     ecut=    60.00 Ry     beta= 0.70
     Davidson diagonalization with overlap
     ethr =  1.99E-06,  avg # of iterations =  1.3

     total cpu time spent up to now is       24.1 secs

     total energy              =    -339.38433737 Ry
     estimated scf accuracy    <       0.00018832 Ry

     total magnetization       =     0.46 Bohr mag/cell
     absolute magnetization    =     0.50 Bohr mag/cell

     iteration # 16     ecut=    60.00 Ry     beta= 0.70
     Davidson diagonalization with overlap
     ethr =  1.05E-06,  avg # of iterations =  1.0

     total cpu time spent up to now is       25.4 secs

     total energy              =    -339.38439377 Ry
     estimated scf accuracy    <       0.00019536 Ry

     total magnetization       =     0.42 Bohr mag/cell
     absolute magnetization    =     0.45 Bohr mag/cell

     iteration # 17     ecut=    60.00 Ry     beta= 0.70
     Davidson diagonalization with overlap
     ethr =  1.05E-06,  avg # of iterations =  1.0

     total cpu time spent up to now is       26.6 secs

     total energy              =    -339.38238683 Ry
     estimated scf accuracy    <       0.00012726 Ry

     total magnetization       =     0.37 Bohr mag/cell
     absolute magnetization    =     0.40 Bohr mag/cell

     iteration # 18     ecut=    60.00 Ry     beta= 0.70
     Davidson diagonalization with overlap
     ethr =  7.07E-07,  avg # of iterations =  2.3

     total cpu time spent up to now is       28.5 secs

     total energy              =    -339.36976072 Ry
     estimated scf accuracy    <       0.00029130 Ry

     total magnetization       =     0.57 Bohr mag/cell
     absolute magnetization    =     0.62 Bohr mag/cell

     iteration # 19     ecut=    60.00 Ry     beta= 0.70
     Davidson diagonalization with overlap
     ethr =  7.07E-07,  avg # of iterations =  3.5

     total cpu time spent up to now is       30.9 secs

     total energy              =    -339.38377379 Ry
     estimated scf accuracy    <       0.00555122 Ry

     total magnetization       =    -0.09 Bohr mag/cell
     absolute magnetization    =     0.16 Bohr mag/cell

     iteration # 20     ecut=    60.00 Ry     beta= 0.70
     Davidson diagonalization with overlap
     ethr =  7.07E-07,  avg # of iterations =  2.2

     total cpu time spent up to now is       32.6 secs

     total energy              =    -339.38454989 Ry
     estimated scf accuracy    <       0.00056525 Ry

     total magnetization       =     0.08 Bohr mag/cell
     absolute magnetization    =     0.09 Bohr mag/cell

     iteration # 21     ecut=    60.00 Ry     beta= 0.70
     Davidson diagonalization with overlap
     ethr =  7.07E-07,  avg # of iterations =  2.0

     total cpu time spent up to now is       34.2 secs

     total energy              =    -339.38497874 Ry
     estimated scf accuracy    <       0.00079786 Ry

     total magnetization       =    -0.03 Bohr mag/cell
     absolute magnetization    =     0.05 Bohr mag/cell

     iteration # 22     ecut=    60.00 Ry     beta= 0.70
     Davidson diagonalization with overlap
     ethr =  7.07E-07,  avg # of iterations =  2.0

     total cpu time spent up to now is       35.7 secs

     total energy              =    -339.38483010 Ry
     estimated scf accuracy    <       0.00034226 Ry

     total magnetization       =    -0.01 Bohr mag/cell
     absolute magnetization    =     0.02 Bohr mag/cell

     iteration # 23     ecut=    60.00 Ry     beta= 0.70
     Davidson diagonalization with overlap
     ethr =  7.07E-07,  avg # of iterations =  2.0

     total cpu time spent up to now is       37.2 secs

     total energy              =    -339.38471861 Ry
     estimated scf accuracy    <       0.00023796 Ry

     total magnetization       =     0.05 Bohr mag/cell
     absolute magnetization    =     0.06 Bohr mag/cell

     iteration # 24     ecut=    60.00 Ry     beta= 0.70
     Davidson diagonalization with overlap
     ethr =  7.07E-07,  avg # of iterations =  2.0

     total cpu time spent up to now is       38.7 secs

     total energy              =    -339.38445013 Ry
     estimated scf accuracy    <       0.00088657 Ry

     total magnetization       =    -0.03 Bohr mag/cell
     absolute magnetization    =     0.06 Bohr mag/cell

     iteration # 25     ecut=    60.00 Ry     beta= 0.70
     Davidson diagonalization with overlap
     ethr =  7.07E-07,  avg # of iterations =  2.0

     total cpu time spent up to now is       40.3 secs

     total energy              =    -339.38449702 Ry
     estimated scf accuracy    <       0.00177365 Ry

     total magnetization       =     0.08 Bohr mag/cell
     absolute magnetization    =     0.11 Bohr mag/cell

     iteration # 26     ecut=    60.00 Ry     beta= 0.70
     Davidson diagonalization with overlap
     ethr =  7.07E-07,  avg # of iterations =  2.0

     total cpu time spent up to now is       41.9 secs

     total energy              =    -339.38441410 Ry
     estimated scf accuracy    <       0.00069426 Ry

     total magnetization       =    -0.03 Bohr mag/cell
     absolute magnetization    =     0.05 Bohr mag/cell

     iteration # 27     ecut=    60.00 Ry     beta= 0.70
     Davidson diagonalization with overlap
     ethr =  7.07E-07,  avg # of iterations =  2.0

     total cpu time spent up to now is       43.5 secs

     total energy              =    -339.38415455 Ry
     estimated scf accuracy    <       0.00497365 Ry

     total magnetization       =    -0.14 Bohr mag/cell
     absolute magnetization    =     0.18 Bohr mag/cell

     iteration # 28     ecut=    60.00 Ry     beta= 0.70
     Davidson diagonalization with overlap
     ethr =  7.07E-07,  avg # of iterations =  2.0

     total cpu time spent up to now is       45.2 secs

     total energy              =    -339.38486010 Ry
     estimated scf accuracy    <       0.00330539 Ry

     total magnetization       =     0.01 Bohr mag/cell
     absolute magnetization    =     0.08 Bohr mag/cell

     iteration # 29     ecut=    60.00 Ry     beta= 0.70
     Davidson diagonalization with overlap
     ethr =  7.07E-07,  avg # of iterations =  2.0

     total cpu time spent up to now is       46.7 secs

     total energy              =    -339.38496953 Ry
     estimated scf accuracy    <       0.00037355 Ry

     total magnetization       =     0.04 Bohr mag/cell
     absolute magnetization    =     0.05 Bohr mag/cell

     iteration # 30     ecut=    60.00 Ry     beta= 0.70
     Davidson diagonalization with overlap
     ethr =  7.07E-07,  avg # of iterations =  1.0

     total cpu time spent up to now is       48.0 secs

     total energy              =    -339.38496310 Ry
     estimated scf accuracy    <       0.00011448 Ry

     total magnetization       =     0.02 Bohr mag/cell
     absolute magnetization    =     0.03 Bohr mag/cell

     iteration # 31     ecut=    60.00 Ry     beta= 0.70
     Davidson diagonalization with overlap
     ethr =  6.36E-07,  avg # of iterations =  2.0

     total cpu time spent up to now is       49.5 secs

     total energy              =    -339.38494688 Ry
     estimated scf accuracy    <       0.00087362 Ry

     total magnetization       =    -0.00 Bohr mag/cell
     absolute magnetization    =     0.04 Bohr mag/cell

     iteration # 32     ecut=    60.00 Ry     beta= 0.70
     Davidson diagonalization with overlap
     ethr =  6.36E-07,  avg # of iterations =  2.0

     total cpu time spent up to now is       50.9 secs

     total energy              =    -339.38498250 Ry
     estimated scf accuracy    <       0.00044326 Ry

     total magnetization       =     0.03 Bohr mag/cell
     absolute magnetization    =     0.04 Bohr mag/cell

     iteration # 33     ecut=    60.00 Ry     beta= 0.70
     Davidson diagonalization with overlap
     ethr =  6.36E-07,  avg # of iterations =  1.0

     total cpu time spent up to now is       52.2 secs

     total energy              =    -339.38499675 Ry
     estimated scf accuracy    <       0.00030586 Ry

     total magnetization       =     0.02 Bohr mag/cell
     absolute magnetization    =     0.03 Bohr mag/cell

     iteration # 34     ecut=    60.00 Ry     beta= 0.70
     Davidson diagonalization with overlap
     ethr =  6.36E-07,  avg # of iterations =  2.0

     total cpu time spent up to now is       53.7 secs

     total energy              =    -339.38495992 Ry
     estimated scf accuracy    <       0.00213708 Ry

     total magnetization       =     0.01 Bohr mag/cell
     absolute magnetization    =     0.06 Bohr mag/cell

     iteration # 35     ecut=    60.00 Ry     beta= 0.70
     Davidson diagonalization with overlap
     ethr =  6.36E-07,  avg # of iterations =  2.0

     total cpu time spent up to now is       55.2 secs

     total energy              =    -339.38498420 Ry
     estimated scf accuracy    <       0.00011171 Ry

     total magnetization       =     0.01 Bohr mag/cell
     absolute magnetization    =     0.02 Bohr mag/cell

     iteration # 36     ecut=    60.00 Ry     beta= 0.70
     Davidson diagonalization with overlap
     ethr =  6.21E-07,  avg # of iterations =  1.0

     total cpu time spent up to now is       56.5 secs

     total energy              =    -339.38498410 Ry
     estimated scf accuracy    <       0.00006992 Ry

     total magnetization       =     0.00 Bohr mag/cell
     absolute magnetization    =     0.01 Bohr mag/cell

     iteration # 37     ecut=    60.00 Ry     beta= 0.70
     Davidson diagonalization with overlap
     ethr =  3.88E-07,  avg # of iterations =  1.0

     total cpu time spent up to now is       57.7 secs

     total energy              =    -339.38498421 Ry
     estimated scf accuracy    <       0.00004566 Ry

     total magnetization       =     0.00 Bohr mag/cell
     absolute magnetization    =     0.01 Bohr mag/cell

     iteration # 38     ecut=    60.00 Ry     beta= 0.70
     Davidson diagonalization with overlap
     ethr =  2.54E-07,  avg # of iterations =  1.0

     total cpu time spent up to now is       59.0 secs

     total energy              =    -339.38498324 Ry
     estimated scf accuracy    <       0.00003622 Ry

     total magnetization       =     0.00 Bohr mag/cell
     absolute magnetization    =     0.01 Bohr mag/cell

     iteration # 39     ecut=    60.00 Ry     beta= 0.70
     Davidson diagonalization with overlap
     ethr =  2.01E-07,  avg # of iterations =  1.0

     total cpu time spent up to now is       60.2 secs

     total energy              =    -339.38498380 Ry
     estimated scf accuracy    <       0.00000699 Ry

     total magnetization       =     0.00 Bohr mag/cell
     absolute magnetization    =     0.01 Bohr mag/cell

     iteration # 40     ecut=    60.00 Ry     beta= 0.70
     Davidson diagonalization with overlap
     ethr =  3.88E-08,  avg # of iterations =  1.1

     total cpu time spent up to now is       61.5 secs

     total energy              =    -339.38498397 Ry
     estimated scf accuracy    <       0.00001373 Ry

     total magnetization       =     0.00 Bohr mag/cell
     absolute magnetization    =     0.01 Bohr mag/cell

     iteration # 41     ecut=    60.00 Ry     beta= 0.70
     Davidson diagonalization with overlap
     ethr =  3.88E-08,  avg # of iterations =  1.0

     total cpu time spent up to now is       62.7 secs

     total energy              =    -339.38498401 Ry
     estimated scf accuracy    <       0.00001344 Ry

     total magnetization       =     0.00 Bohr mag/cell
     absolute magnetization    =     0.01 Bohr mag/cell

     iteration # 42     ecut=    60.00 Ry     beta= 0.70
     Davidson diagonalization with overlap
     ethr =  3.88E-08,  avg # of iterations =  1.0

     total cpu time spent up to now is       64.0 secs

     total energy              =    -339.38498368 Ry
     estimated scf accuracy    <       0.00001411 Ry

     total magnetization       =     0.00 Bohr mag/cell
     absolute magnetization    =     0.01 Bohr mag/cell

     iteration # 43     ecut=    60.00 Ry     beta= 0.70
     Davidson diagonalization with overlap
     ethr =  3.88E-08,  avg # of iterations =  1.0

     total cpu time spent up to now is       65.3 secs

     total energy              =    -339.38498380 Ry
     estimated scf accuracy    <       0.00000203 Ry

     total magnetization       =     0.00 Bohr mag/cell
     absolute magnetization    =     0.00 Bohr mag/cell

     iteration # 44     ecut=    60.00 Ry     beta= 0.70
     Davidson diagonalization with overlap
     ethr =  1.13E-08,  avg # of iterations =  1.0

     Magnetic moment per site  (integrated on atomic sphere of radius R)
     atom   1 (R=0.406)  charge= 16.0976  magn=  0.0025

     total cpu time spent up to now is       66.5 secs

     End of self-consistent calculation

     Number of k-points >= 100: set verbosity='high' to print the bands.

     the Fermi energy is    32.1003 ev

!    total energy              =    -339.38498409 Ry
     estimated scf accuracy    <       0.00000041 Ry
     smearing contrib. (-TS)   =       0.00006681 Ry
     internal energy E=F+TS    =    -339.38505089 Ry

     The total energy is F=E-TS. E is the sum of the following terms:
     one-electron contribution =    -124.97333123 Ry
     hartree contribution      =      82.64728171 Ry
     xc contribution           =     -34.83465281 Ry
     ewald contribution        =    -262.22434857 Ry

     total magnetization       =     0.00 Bohr mag/cell
     absolute magnetization    =     0.00 Bohr mag/cell

     convergence has been achieved in  44 iterations

     Forces acting on atoms (cartesian axes, Ry/au):

     atom    1 type  1   force =     0.00000000    0.00000000    0.00000000

     Total force =     0.000000     Total SCF correction =     0.000450


     Computing stress (Cartesian axis) and pressure

          total   stress  (Ry/bohr**3)                   (kbar)     P=     3181.24
   0.02112646  -0.00064666  -0.00251146         3107.81      -95.13     -369.45
  -0.00064666   0.02088706   0.00209085          -95.13     3072.59      307.57
  -0.00251146   0.00209085   0.02286332         -369.45      307.57     3363.31


     BFGS Geometry Optimization
     Energy error            =      0.0E+00 Ry
     Gradient error          =      0.0E+00 Ry/Bohr
     Cell gradient error     =      3.4E+03 kbar

     number of scf cycles    =   1
     number of bfgs steps    =   0

     enthalpy           new  =    -339.3849840865 Ry

     new trust radius        =       0.5000000000 bohr
     new conv_thr            =       0.0000010000 Ry

     new unit-cell volume =    110.53904 a.u.^3 (    16.38020 Ang^3 )
     density =      5.95003 g/cm^3

CELL_PARAMETERS (bohr)
   5.269138678  -0.040942689  -0.159010440
  -0.997140282   5.174055552   0.159055067
  -1.691261684  -2.936704125   4.038055314

ATOMIC_POSITIONS (crystal)
Ni            0.0000000000        0.0000000000        0.0000000000



     Writing config-only to output data dir ./out/pwscf.save/
     NEW-OLD atomic charge density approx. for the potential

     Check: negative core charge=   -0.000008
     extrapolated charge   28.64287, renormalised to   18.00000
     Generating pointlists ...

     total cpu time spent up to now is       67.0 secs

     Self-consistent Calculation

     iteration #  1     ecut=    60.00 Ry     beta= 0.70
     Davidson diagonalization with overlap
     c_bands:  1 eigenvalues not converged
     c_bands:  1 eigenvalues not converged
     c_bands:  1 eigenvalues not converged
     c_bands:  1 eigenvalues not converged
     c_bands:  1 eigenvalues not converged
     c_bands:  1 eigenvalues not converged
     c_bands:  2 eigenvalues not converged
     c_bands:  2 eigenvalues not converged
     c_bands:  1 eigenvalues not converged
     c_bands:  1 eigenvalues not converged
     c_bands:  1 eigenvalues not converged
     c_bands:  1 eigenvalues not converged
     c_bands:  1 eigenvalues not converged
     c_bands:  1 eigenvalues not converged
     c_bands:  1 eigenvalues not converged
     c_bands:  1 eigenvalues not converged
     c_bands:  1 eigenvalues not converged
     c_bands:  1 eigenvalues not converged
     c_bands:  1 eigenvalues not converged
     c_bands:  2 eigenvalues not converged
     c_bands:  1 eigenvalues not converged
     c_bands:  1 eigenvalues not converged
     c_bands:  2 eigenvalues not converged
     c_bands:  1 eigenvalues not converged
     c_bands:  2 eigenvalues not converged
     c_bands:  1 eigenvalues not converged
     c_bands:  1 eigenvalues not converged
     c_bands:  1 eigenvalues not converged
     c_bands:  1 eigenvalues not converged
     c_bands:  1 eigenvalues not converged
     c_bands:  1 eigenvalues not converged
     c_bands:  1 eigenvalues not converged
     c_bands:  1 eigenvalues not converged
     c_bands:  1 eigenvalues not converged
     c_bands:  1 eigenvalues not converged
     c_bands:  1 eigenvalues not converged
     c_bands:  2 eigenvalues not converged
     c_bands:  2 eigenvalues not converged
     c_bands:  2 eigenvalues not converged
     c_bands:  2 eigenvalues not converged
     c_bands:  1 eigenvalues not converged
     c_bands:  2 eigenvalues not converged
     c_bands:  1 eigenvalues not converged
     c_bands:  1 eigenvalues not converged
     c_bands:  1 eigenvalues not converged
     c_bands:  1 eigenvalues not converged
     c_bands:  1 eigenvalues not converged
     c_bands:  1 eigenvalues not converged
     c_bands:  1 eigenvalues not converged
     c_bands:  1 eigenvalues not converged
     c_bands:  1 eigenvalues not converged
     c_bands:  2 eigenvalues not converged
     c_bands:  1 eigenvalues not converged
     c_bands:  2 eigenvalues not converged
     c_bands:  1 eigenvalues not converged
     c_bands:  2 eigenvalues not converged
     c_bands:  1 eigenvalues not converged
     c_bands:  1 eigenvalues not converged
     c_bands:  1 eigenvalues not converged
     c_bands:  1 eigenvalues not converged
     c_bands:  1 eigenvalues not converged
     c_bands:  1 eigenvalues not converged
     c_bands:  1 eigenvalues not converged
     c_bands:  1 eigenvalues not converged
     c_bands:  1 eigenvalues not converged
     c_bands:  1 eigenvalues not converged
     c_bands:  1 eigenvalues not converged
     c_bands:  2 eigenvalues not converged
     c_bands:  1 eigenvalues not converged
     c_bands:  2 eigenvalues not converged
     c_bands:  1 eigenvalues not converged
     c_bands:  2 eigenvalues not converged
     c_bands:  1 eigenvalues not converged
     c_bands:  1 eigenvalues not converged
     c_bands:  1 eigenvalues not converged
     c_bands:  2 eigenvalues not converged
     c_bands:  1 eigenvalues not converged
     c_bands:  1 eigenvalues not converged
     c_bands:  1 eigenvalues not converged
     c_bands:  1 eigenvalues not converged
     c_bands:  1 eigenvalues not converged
     c_bands:  1 eigenvalues not converged
     c_bands:  1 eigenvalues not converged
     c_bands:  1 eigenvalues not converged
     c_bands:  1 eigenvalues not converged
     c_bands:  1 eigenvalues not converged
     c_bands:  1 eigenvalues not converged
     c_bands:  1 eigenvalues not converged
     c_bands:  1 eigenvalues not converged
     c_bands:  1 eigenvalues not converged
     c_bands:  1 eigenvalues not converged
     c_bands:  1 eigenvalues not converged
     c_bands:  2 eigenvalues not converged
     c_bands:  1 eigenvalues not converged
     c_bands:  2 eigenvalues not converged
     c_bands:  1 eigenvalues not converged
     c_bands:  2 eigenvalues not converged
     c_bands:  1 eigenvalues not converged
     c_bands:  1 eigenvalues not converged
     c_bands:  1 eigenvalues not converged
     c_bands:  1 eigenvalues not converged
     c_bands:  1 eigenvalues not converged
     c_bands:  1 eigenvalues not converged
     c_bands:  1 eigenvalues not converged
     c_bands:  1 eigenvalues not converged
     c_bands:  2 eigenvalues not converged
     c_bands:  1 eigenvalues not converged
     c_bands:  2 eigenvalues not converged
     c_bands:  1 eigenvalues not converged
     c_bands:  1 eigenvalues not converged
     c_bands:  1 eigenvalues not converged
     c_bands:  1 eigenvalues not converged
     ethr =  1.00E-06,  avg # of iterations = 17.4

     total cpu time spent up to now is       75.1 secs

     total energy              =    -243.05755633 Ry
     estimated scf accuracy    <      70.33839042 Ry

     total magnetization       =     0.00 Bohr mag/cell
     absolute magnetization    =     0.00 Bohr mag/cell

     iteration #  2     ecut=    60.00 Ry     beta= 0.70
     Davidson diagonalization with overlap
     ethr =  1.00E-02,  avg # of iterations =  4.1

     total cpu time spent up to now is       78.0 secs

     total energy              =    -354.21529727 Ry
     estimated scf accuracy    <      84.73477299 Ry

     total magnetization       =     0.00 Bohr mag/cell
     absolute magnetization    =     0.09 Bohr mag/cell

     iteration #  3     ecut=    60.00 Ry     beta= 0.70
     Davidson diagonalization with overlap
     ethr =  1.00E-02,  avg # of iterations =  2.0

     total cpu time spent up to now is       79.9 secs

     total energy              =    -344.69462340 Ry
     estimated scf accuracy    <      39.17906130 Ry

     total magnetization       =    -0.00 Bohr mag/cell
     absolute magnetization    =     1.10 Bohr mag/cell

     iteration #  4     ecut=    60.00 Ry     beta= 0.70
     Davidson diagonalization with overlap
     ethr =  1.00E-02,  avg # of iterations =  2.0

     negative rho (up, down):  3.958E+00 3.950E+00

     total cpu time spent up to now is       81.7 secs

     total energy              =    -334.82496610 Ry
     estimated scf accuracy    <     233.35017147 Ry

     total magnetization       =    -0.00 Bohr mag/cell
     absolute magnetization    =    22.58 Bohr mag/cell

     iteration #  5     ecut=    60.00 Ry     beta= 0.70
     Davidson diagonalization with overlap
     ethr =  1.00E-02,  avg # of iterations =  2.0

     negative rho (up, down):  4.110E+00 4.083E+00

     total cpu time spent up to now is       83.2 secs

     total energy              =    -335.36536905 Ry
     estimated scf accuracy    <     132.24304223 Ry

     total magnetization       =    -0.00 Bohr mag/cell
     absolute magnetization    =    16.04 Bohr mag/cell

     iteration #  6     ecut=    60.00 Ry     beta= 0.70
     Davidson diagonalization with overlap
     ethr =  1.00E-02,  avg # of iterations =  2.0

     negative rho (up, down):  4.269E+00 4.252E+00

     total cpu time spent up to now is       84.7 secs

     total energy              =    -334.39473607 Ry
     estimated scf accuracy    <     134.80224179 Ry

     total magnetization       =     0.00 Bohr mag/cell
     absolute magnetization    =    16.27 Bohr mag/cell

     iteration #  7     ecut=    60.00 Ry     beta= 0.70
     Davidson diagonalization with overlap
     ethr =  1.00E-02,  avg # of iterations =  2.0

     negative rho (up, down):  3.936E+00 4.003E+00

     total cpu time spent up to now is       86.3 secs

     total energy              =    -332.91264326 Ry
     estimated scf accuracy    <     106.83012259 Ry

     total magnetization       =    -0.00 Bohr mag/cell
     absolute magnetization    =    13.83 Bohr mag/cell

     iteration #  8     ecut=    60.00 Ry     beta= 0.70
     Davidson diagonalization with overlap
     ethr =  1.00E-02,  avg # of iterations =  2.0

     negative rho (up, down):  2.615E+00 4.308E+00

     total cpu time spent up to now is       87.8 secs

     total energy              =    -331.33527566 Ry
     estimated scf accuracy    <      82.90424662 Ry

     total magnetization       =     0.00 Bohr mag/cell
     absolute magnetization    =    11.62 Bohr mag/cell

     iteration #  9     ecut=    60.00 Ry     beta= 0.70
     Davidson diagonalization with overlap
     ethr =  1.00E-02,  avg # of iterations =  2.0

     negative rho (up, down):  2.846E+00 3.637E+00

     total cpu time spent up to now is       89.3 secs

     total energy              =    -335.72818238 Ry
     estimated scf accuracy    <     121.43554671 Ry

     total magnetization       =     0.00 Bohr mag/cell
     absolute magnetization    =    16.07 Bohr mag/cell

     iteration # 10     ecut=    60.00 Ry     beta= 0.70
     Davidson diagonalization with overlap
     ethr =  1.00E-02,  avg # of iterations =  2.0

     negative rho (up, down):  4.679E+00 4.466E+00

     total cpu time spent up to now is       90.9 secs

     total energy              =    -328.54738424 Ry
     estimated scf accuracy    <     166.57468352 Ry

     total magnetization       =     0.00 Bohr mag/cell
     absolute magnetization    =    19.22 Bohr mag/cell

     iteration # 11     ecut=    60.00 Ry     beta= 0.70
     Davidson diagonalization with overlap
     ethr =  1.00E-02,  avg # of iterations =  2.1

     negative rho (up, down):  2.936E+00 4.418E+00

     total cpu time spent up to now is       92.8 secs

     total energy              =    -329.95471776 Ry
     estimated scf accuracy    <      84.72367620 Ry

     total magnetization       =    -0.19 Bohr mag/cell
     absolute magnetization    =    13.91 Bohr mag/cell

     iteration # 12     ecut=    60.00 Ry     beta= 0.70
     Davidson diagonalization with overlap
     ethr =  1.00E-02,  avg # of iterations =  2.0

     negative rho (up, down):  3.528E+00 3.541E+00

     total cpu time spent up to now is       94.5 secs

     total energy              =    -330.81030078 Ry
     estimated scf accuracy    <     105.31834083 Ry

     total magnetization       =    -0.28 Bohr mag/cell
     absolute magnetization    =    15.32 Bohr mag/cell

     iteration # 13     ecut=    60.00 Ry     beta= 0.70
     Davidson diagonalization with overlap
     ethr =  1.00E-02,  avg # of iterations =  2.0

     negative rho (up, down):  4.491E+00 4.650E+00

     total cpu time spent up to now is       96.1 secs

     total energy              =    -329.56919038 Ry
     estimated scf accuracy    <     140.92461367 Ry

     total magnetization       =    -0.14 Bohr mag/cell
     absolute magnetization    =    17.47 Bohr mag/cell

     iteration # 14     ecut=    60.00 Ry     beta= 0.70
     Davidson diagonalization with overlap
     ethr =  1.00E-02,  avg # of iterations =  2.0

     negative rho (up, down):  4.383E+00 3.727E+00

     total cpu time spent up to now is       97.6 secs

     total energy              =    -331.08442333 Ry
     estimated scf accuracy    <      91.84775440 Ry

     total magnetization       =    -0.14 Bohr mag/cell
     absolute magnetization    =    14.34 Bohr mag/cell

     iteration # 15     ecut=    60.00 Ry     beta= 0.70
     Davidson diagonalization with overlap
     ethr =  1.00E-02,  avg # of iterations =  2.0

     negative rho (up, down):  5.085E+00 3.862E+00

     total cpu time spent up to now is       99.1 secs

     total energy              =    -329.25967405 Ry
     estimated scf accuracy    <     171.26664856 Ry

     total magnetization       =     0.00 Bohr mag/cell
     absolute magnetization    =    19.56 Bohr mag/cell

     iteration # 16     ecut=    60.00 Ry     beta= 0.70
     Davidson diagonalization with overlap
     ethr =  1.00E-02,  avg # of iterations =  2.0

     negative rho (up, down):  4.254E+00 4.490E+00

     total cpu time spent up to now is      100.7 secs

     total energy              =    -330.18557702 Ry
     estimated scf accuracy    <     116.74469242 Ry

     total magnetization       =     0.19 Bohr mag/cell
     absolute magnetization    =    16.31 Bohr mag/cell

     iteration # 17     ecut=    60.00 Ry     beta= 0.70
     Davidson diagonalization with overlap
     ethr =  1.00E-02,  avg # of iterations =  2.0

     negative rho (up, down):  4.610E+00 4.973E+00

     total cpu time spent up to now is      102.3 secs

     total energy              =    -332.15802977 Ry
     estimated scf accuracy    <     136.40236188 Ry

     total magnetization       =     0.22 Bohr mag/cell
     absolute magnetization    =    17.48 Bohr mag/cell

     iteration # 18     ecut=    60.00 Ry     beta= 0.70
     Davidson diagonalization with overlap
     ethr =  1.00E-02,  avg # of iterations =  2.5

     negative rho (up, down):  4.632E+00 8.623E+00

     total cpu time spent up to now is      104.3 secs

     total energy              =    -322.46742230 Ry
     estimated scf accuracy    <     282.76507186 Ry

     total magnetization       =    -0.10 Bohr mag/cell
     absolute magnetization    =    25.98 Bohr mag/cell

     iteration # 19     ecut=    60.00 Ry     beta= 0.70
     Davidson diagonalization with overlap
     ethr =  1.00E-02,  avg # of iterations =  2.0

     negative rho (up, down):  4.506E+00 7.921E+00

     total cpu time spent up to now is      106.0 secs

     total energy              =    -325.65730128 Ry
     estimated scf accuracy    <     162.77062643 Ry

     total magnetization       =    -0.24 Bohr mag/cell
     absolute magnetization    =    19.27 Bohr mag/cell

     iteration # 20     ecut=    60.00 Ry     beta= 0.70
     Davidson diagonalization with overlap
     ethr =  1.00E-02,  avg # of iterations =  2.0

     negative rho (up, down):  4.366E+00 7.158E+00

     total cpu time spent up to now is      107.5 secs

     total energy              =    -327.18643533 Ry
     estimated scf accuracy    <     147.13641740 Ry

     total magnetization       =    -0.61 Bohr mag/cell
     absolute magnetization    =    17.93 Bohr mag/cell

     iteration # 21     ecut=    60.00 Ry     beta= 0.70
     Davidson diagonalization with overlap
     ethr =  1.00E-02,  avg # of iterations =  2.0

     negative rho (up, down):  4.388E+00 6.982E+00

     total cpu time spent up to now is      109.0 secs

     total energy              =    -327.54406766 Ry
     estimated scf accuracy    <     149.20085706 Ry

     total magnetization       =    -0.20 Bohr mag/cell
     absolute magnetization    =    18.42 Bohr mag/cell

     iteration # 22     ecut=    60.00 Ry     beta= 0.70
     Davidson diagonalization with overlap
     ethr =  1.00E-02,  avg # of iterations =  1.0

     negative rho (up, down):  4.890E+00 6.671E+00

     total cpu time spent up to now is      110.3 secs

     total energy              =    -325.31735118 Ry
     estimated scf accuracy    <     152.70397057 Ry

     total magnetization       =    -0.07 Bohr mag/cell
     absolute magnetization    =    18.74 Bohr mag/cell

     iteration # 23     ecut=    60.00 Ry     beta= 0.70
     Davidson diagonalization with overlap
     ethr =  1.00E-02,  avg # of iterations =  2.0

     negative rho (up, down):  3.997E+00 5.047E+00

     total cpu time spent up to now is      111.9 secs

     total energy              =    -333.74162501 Ry
     estimated scf accuracy    <     112.69958753 Ry

     total magnetization       =    -0.65 Bohr mag/cell
     absolute magnetization    =    15.43 Bohr mag/cell

     iteration # 24     ecut=    60.00 Ry     beta= 0.70
     Davidson diagonalization with overlap
     ethr =  1.00E-02,  avg # of iterations =  2.5

     negative rho (up, down):  5.797E+00 8.989E+00

     total cpu time spent up to now is      113.9 secs

     total energy              =    -336.82330785 Ry
     estimated scf accuracy    <     328.47982253 Ry

     total magnetization       =     0.26 Bohr mag/cell
     absolute magnetization    =    27.66 Bohr mag/cell

     iteration # 25     ecut=    60.00 Ry     beta= 0.70
     Davidson diagonalization with overlap
     ethr =  1.00E-02,  avg # of iterations =  2.0

     negative rho (up, down):  8.167E+00 1.051E+01

     total cpu time spent up to now is      115.7 secs

     total energy              =    -338.50607436 Ry
     estimated scf accuracy    <     384.27168980 Ry

     total magnetization       =     0.09 Bohr mag/cell
     absolute magnetization    =    27.49 Bohr mag/cell

     iteration # 26     ecut=    60.00 Ry     beta= 0.70
     Davidson diagonalization with overlap
     ethr =  1.00E-02,  avg # of iterations =  2.0

     negative rho (up, down):  1.021E+01 9.435E+00

     total cpu time spent up to now is      117.4 secs

     total energy              =    -323.99482114 Ry
     estimated scf accuracy    <     391.67672256 Ry

     total magnetization       =    -0.05 Bohr mag/cell
     absolute magnetization    =    26.79 Bohr mag/cell

     iteration # 27     ecut=    60.00 Ry     beta= 0.70
     Davidson diagonalization with overlap
     ethr =  1.00E-02,  avg # of iterations =  2.8

     negative rho (up, down):  9.579E+00 6.590E+00

     total cpu time spent up to now is      119.4 secs

     total energy              =    -331.39838449 Ry
     estimated scf accuracy    <     345.79938982 Ry

     total magnetization       =    -1.10 Bohr mag/cell
     absolute magnetization    =    30.70 Bohr mag/cell

     iteration # 28     ecut=    60.00 Ry     beta= 0.70
     Davidson diagonalization with overlap
     ethr =  1.00E-02,  avg # of iterations =  2.0

     negative rho (up, down):  1.072E+01 7.000E+00

     total cpu time spent up to now is      121.1 secs

     total energy              =    -326.47479450 Ry
     estimated scf accuracy    <     324.48507591 Ry

     total magnetization       =    -0.43 Bohr mag/cell
     absolute magnetization    =    30.14 Bohr mag/cell

     iteration # 29     ecut=    60.00 Ry     beta= 0.70
     Davidson diagonalization with overlap
     ethr =  1.00E-02,  avg # of iterations =  2.0

     negative rho (up, down):  8.859E+00 7.378E+00

     total cpu time spent up to now is      122.7 secs

     total energy              =    -332.85370927 Ry
     estimated scf accuracy    <     300.39299939 Ry

     total magnetization       =    -0.00 Bohr mag/cell
     absolute magnetization    =    24.14 Bohr mag/cell

     iteration # 30     ecut=    60.00 Ry     beta= 0.70
     Davidson diagonalization with overlap
     ethr =  1.00E-02,  avg # of iterations =  1.5

     negative rho (up, down):  7.920E+00 7.480E+00

     total cpu time spent up to now is      124.2 secs

     total energy              =    -330.42840156 Ry
     estimated scf accuracy    <     315.54762864 Ry

     total magnetization       =    -0.00 Bohr mag/cell
     absolute magnetization    =    25.59 Bohr mag/cell

     iteration # 31     ecut=    60.00 Ry     beta= 0.70
     Davidson diagonalization with overlap
     ethr =  1.00E-02,  avg # of iterations =  2.5

     negative rho (up, down):  9.322E+00 7.969E+00

     total cpu time spent up to now is      126.4 secs

     total energy              =    -318.80638378 Ry
     estimated scf accuracy    <     435.03975152 Ry

     total magnetization       =     0.03 Bohr mag/cell
     absolute magnetization    =    30.72 Bohr mag/cell

     iteration # 32     ecut=    60.00 Ry     beta= 0.70
     Davidson diagonalization with overlap
     ethr =  1.00E-02,  avg # of iterations =  3.0

     negative rho (up, down):  7.376E+00 9.604E+00

     total cpu time spent up to now is      128.5 secs

     total energy              =    -317.12421565 Ry
     estimated scf accuracy    <     373.47741035 Ry

     total magnetization       =    -1.09 Bohr mag/cell
     absolute magnetization    =    30.21 Bohr mag/cell

     iteration # 33     ecut=    60.00 Ry     beta= 0.70
     Davidson diagonalization with overlap
     ethr =  1.00E-02,  avg # of iterations =  4.0

     negative rho (up, down):  1.274E+01 1.460E+01

     total cpu time spent up to now is      131.0 secs

     total energy              =    -450.36750297 Ry
     estimated scf accuracy    <     737.44937710 Ry

     total magnetization       =     0.00 Bohr mag/cell
     absolute magnetization    =    18.52 Bohr mag/cell

     iteration # 34     ecut=    60.00 Ry     beta= 0.70
     Davidson diagonalization with overlap
     ethr =  1.00E-02,  avg # of iterations =  2.6

     negative rho (up, down):  1.864E+01 1.748E+01

     total cpu time spent up to now is      133.1 secs

     total energy              =    -516.30895515 Ry
     estimated scf accuracy    <     696.98283468 Ry

     total magnetization       =     0.00 Bohr mag/cell
     absolute magnetization    =    21.42 Bohr mag/cell

     iteration # 35     ecut=    60.00 Ry     beta= 0.70
     Davidson diagonalization with overlap
     ethr =  1.00E-02,  avg # of iterations =  3.1

     negative rho (up, down):  2.076E+01 2.007E+01

     total cpu time spent up to now is      135.3 secs

     total energy              =    -532.89487204 Ry
     estimated scf accuracy    <     830.55662190 Ry

     total magnetization       =    -0.00 Bohr mag/cell
     absolute magnetization    =    18.12 Bohr mag/cell

     iteration # 36     ecut=    60.00 Ry     beta= 0.70
     Davidson diagonalization with overlap
     ethr =  1.00E-02,  avg # of iterations =  2.1

     negative rho (up, down):  2.479E+01 1.723E+01

     total cpu time spent up to now is      137.1 secs

     total energy              =    -384.81944395 Ry
     estimated scf accuracy    <     857.93723164 Ry

     total magnetization       =     0.00 Bohr mag/cell
     absolute magnetization    =    17.91 Bohr mag/cell

     iteration # 37     ecut=    60.00 Ry     beta= 0.70
     Davidson diagonalization with overlap
     ethr =  1.00E-02,  avg # of iterations =  3.5

     negative rho (up, down):  1.519E+01 1.559E+01

     total cpu time spent up to now is      139.6 secs

     total energy              =    -164.04045041 Ry
     estimated scf accuracy    <     463.32999525 Ry

     total magnetization       =    -0.04 Bohr mag/cell
     absolute magnetization    =    30.06 Bohr mag/cell

     iteration # 38     ecut=    60.00 Ry     beta= 0.70
     Davidson diagonalization with overlap
     ethr =  1.00E-02,  avg # of iterations =  5.0

     negative rho (up, down):  7.109E+00 1.003E+01

     total cpu time spent up to now is      142.4 secs

     total energy              =    -293.50796956 Ry
     estimated scf accuracy    <     873.18697918 Ry

     total magnetization       =    -0.00 Bohr mag/cell
     absolute magnetization    =    10.85 Bohr mag/cell

     iteration # 39     ecut=    60.00 Ry     beta= 0.70
     Davidson diagonalization with overlap
     ethr =  1.00E-02,  avg # of iterations =  3.5

     negative rho (up, down):  8.325E+00 6.287E+00

     total cpu time spent up to now is      144.8 secs

     total energy              =    -344.20747652 Ry
     estimated scf accuracy    <     394.06089821 Ry

     total magnetization       =     0.09 Bohr mag/cell
     absolute magnetization    =    38.03 Bohr mag/cell

     iteration # 40     ecut=    60.00 Ry     beta= 0.70
     Davidson diagonalization with overlap
     ethr =  1.00E-02,  avg # of iterations =  2.8

     negative rho (up, down):  7.715E+00 8.520E+00

     total cpu time spent up to now is      146.8 secs

     total energy              =    -344.06475176 Ry
     estimated scf accuracy    <     184.25145432 Ry

     total magnetization       =     0.11 Bohr mag/cell
     absolute magnetization    =    40.48 Bohr mag/cell

     iteration # 41     ecut=    60.00 Ry     beta= 0.70
     Davidson diagonalization with overlap
     ethr =  1.00E-02,  avg # of iterations =  2.0

     negative rho (up, down):  9.142E+00 9.697E+00

     total cpu time spent up to now is      148.4 secs

     total energy              =    -340.78892818 Ry
     estimated scf accuracy    <     208.86912726 Ry

     total magnetization       =     0.20 Bohr mag/cell
     absolute magnetization    =    40.48 Bohr mag/cell

     iteration # 42     ecut=    60.00 Ry     beta= 0.70
     Davidson diagonalization with overlap
     ethr =  1.00E-02,  avg # of iterations =  2.0

     negative rho (up, down):  9.395E+00 1.036E+01

     total cpu time spent up to now is      150.0 secs

     total energy              =    -340.26735309 Ry
     estimated scf accuracy    <     234.36557021 Ry

     total magnetization       =    -0.00 Bohr mag/cell
     absolute magnetization    =    39.19 Bohr mag/cell

     iteration # 43     ecut=    60.00 Ry     beta= 0.70
     Davidson diagonalization with overlap
     ethr =  1.00E-02,  avg # of iterations =  2.0

     negative rho (up, down):  8.918E+00 9.150E+00

     total cpu time spent up to now is      151.7 secs

     total energy              =    -342.45210173 Ry
     estimated scf accuracy    <     270.15274590 Ry

     total magnetization       =    -0.00 Bohr mag/cell
     absolute magnetization    =    38.35 Bohr mag/cell

     iteration # 44     ecut=    60.00 Ry     beta= 0.70
     Davidson diagonalization with overlap
     ethr =  1.00E-02,  avg # of iterations =  2.0

     negative rho (up, down):  9.850E+00 1.054E+01

     total cpu time spent up to now is      153.3 secs

     total energy              =    -339.01774048 Ry
     estimated scf accuracy    <     230.69029451 Ry

     total magnetization       =     0.00 Bohr mag/cell
     absolute magnetization    =    39.53 Bohr mag/cell

     iteration # 45     ecut=    60.00 Ry     beta= 0.70
     Davidson diagonalization with overlap
     ethr =  1.00E-02,  avg # of iterations =  2.0

     negative rho (up, down):  1.014E+01 9.732E+00

     total cpu time spent up to now is      154.9 secs

     total energy              =    -337.30972640 Ry
     estimated scf accuracy    <     294.28604309 Ry

     total magnetization       =     0.00 Bohr mag/cell
     absolute magnetization    =    37.66 Bohr mag/cell

     iteration # 46     ecut=    60.00 Ry     beta= 0.70
     Davidson diagonalization with overlap
     ethr =  1.00E-02,  avg # of iterations =  2.0

     negative rho (up, down):  9.770E+00 7.273E+00

     total cpu time spent up to now is      156.6 secs

     total energy              =    -339.89983392 Ry
     estimated scf accuracy    <     286.80643359 Ry

     total magnetization       =    -0.00 Bohr mag/cell
     absolute magnetization    =    38.05 Bohr mag/cell

     iteration # 47     ecut=    60.00 Ry     beta= 0.70
     Davidson diagonalization with overlap
     ethr =  1.00E-02,  avg # of iterations =  3.4

     negative rho (up, down):  1.266E+01 1.143E+01

     total cpu time spent up to now is      158.8 secs

     total energy              =    -314.76856485 Ry
     estimated scf accuracy    <     238.84386727 Ry

     total magnetization       =     0.00 Bohr mag/cell
     absolute magnetization    =    35.62 Bohr mag/cell

     iteration # 48     ecut=    60.00 Ry     beta= 0.70
     Davidson diagonalization with overlap
     ethr =  1.00E-02,  avg # of iterations =  3.0

     negative rho (up, down):  8.490E+00 9.108E+00

     total cpu time spent up to now is      160.9 secs

     total energy              =    -324.85068684 Ry
     estimated scf accuracy    <       5.71091630 Ry

     total magnetization       =     0.62 Bohr mag/cell
     absolute magnetization    =    41.57 Bohr mag/cell

     iteration # 49     ecut=    60.00 Ry     beta= 0.70
     Davidson diagonalization with overlap
     ethr =  1.00E-02,  avg # of iterations =  2.0

     negative rho (up, down):  8.030E+00 9.002E+00

     total cpu time spent up to now is      162.5 secs

     total energy              =    -326.39724890 Ry
     estimated scf accuracy    <      13.94858581 Ry

     total magnetization       =     1.00 Bohr mag/cell
     absolute magnetization    =    41.86 Bohr mag/cell

     iteration # 50     ecut=    60.00 Ry     beta= 0.70
     Davidson diagonalization with overlap
     ethr =  1.00E-02,  avg # of iterations =  2.0

     negative rho (up, down):  7.744E+00 8.568E+00

     total cpu time spent up to now is      164.0 secs

     total energy              =    -326.75408871 Ry
     estimated scf accuracy    <       7.13992923 Ry

     total magnetization       =     0.81 Bohr mag/cell
     absolute magnetization    =    42.05 Bohr mag/cell

     iteration # 51     ecut=    60.00 Ry     beta= 0.70
     Davidson diagonalization with overlap
     ethr =  1.00E-02,  avg # of iterations =  2.0

     negative rho (up, down):  7.886E+00 7.823E+00

     total cpu time spent up to now is      165.6 secs

     total energy              =    -328.14292632 Ry
     estimated scf accuracy    <       8.21149027 Ry

     total magnetization       =     0.26 Bohr mag/cell
     absolute magnetization    =    41.79 Bohr mag/cell

     iteration # 52     ecut=    60.00 Ry     beta= 0.70
     Davidson diagonalization with overlap
     ethr =  1.00E-02,  avg # of iterations =  1.5

     negative rho (up, down):  8.077E+00 7.819E+00

     total cpu time spent up to now is      167.1 secs

     total energy              =    -325.73793393 Ry
     estimated scf accuracy    <       6.30396654 Ry

     total magnetization       =     0.57 Bohr mag/cell
     absolute magnetization    =    41.78 Bohr mag/cell

     iteration # 53     ecut=    60.00 Ry     beta= 0.70
     Davidson diagonalization with overlap
     ethr =  1.00E-02,  avg # of iterations =  2.0

     negative rho (up, down):  7.886E+00 7.958E+00

     total cpu time spent up to now is      168.6 secs

     total energy              =    -325.28780762 Ry
     estimated scf accuracy    <       1.27503242 Ry

     total magnetization       =     0.67 Bohr mag/cell
     absolute magnetization    =    42.01 Bohr mag/cell

     iteration # 54     ecut=    60.00 Ry     beta= 0.70
     Davidson diagonalization with overlap
     ethr =  7.08E-03,  avg # of iterations =  2.0

     negative rho (up, down):  7.859E+00 8.725E+00

     total cpu time spent up to now is      170.2 secs

     total energy              =    -325.38087357 Ry
     estimated scf accuracy    <      10.53689922 Ry

     total magnetization       =     0.85 Bohr mag/cell
     absolute magnetization    =    42.12 Bohr mag/cell

     iteration # 55     ecut=    60.00 Ry     beta= 0.70
     Davidson diagonalization with overlap
     ethr =  7.08E-03,  avg # of iterations =  1.0

     negative rho (up, down):  8.176E+00 9.354E+00

     total cpu time spent up to now is      171.5 secs

     total energy              =    -323.20382644 Ry
     estimated scf accuracy    <       9.76854870 Ry

     total magnetization       =     0.86 Bohr mag/cell
     absolute magnetization    =    42.06 Bohr mag/cell

     iteration # 56     ecut=    60.00 Ry     beta= 0.70
     Davidson diagonalization with overlap
     ethr =  7.08E-03,  avg # of iterations =  1.5

     negative rho (up, down):  7.796E+00 9.258E+00

     total cpu time spent up to now is      172.9 secs

     total energy              =    -324.56765827 Ry
     estimated scf accuracy    <       9.19379750 Ry

     total magnetization       =     1.01 Bohr mag/cell
     absolute magnetization    =    42.06 Bohr mag/cell

     iteration # 57     ecut=    60.00 Ry     beta= 0.70
     Davidson diagonalization with overlap
     ethr =  7.08E-03,  avg # of iterations =  1.5

     negative rho (up, down):  7.711E+00 9.094E+00

     total cpu time spent up to now is      174.3 secs

     total energy              =    -324.83807017 Ry
     estimated scf accuracy    <       8.50688794 Ry

     total magnetization       =     1.00 Bohr mag/cell
     absolute magnetization    =    42.12 Bohr mag/cell

     iteration # 58     ecut=    60.00 Ry     beta= 0.70
     Davidson diagonalization with overlap
     ethr =  7.08E-03,  avg # of iterations =  1.5

     negative rho (up, down):  7.691E+00 8.860E+00

     total cpu time spent up to now is      175.8 secs

     total energy              =    -325.13120611 Ry
     estimated scf accuracy    <       5.46339595 Ry

     total magnetization       =     0.84 Bohr mag/cell
     absolute magnetization    =    42.10 Bohr mag/cell

     iteration # 59     ecut=    60.00 Ry     beta= 0.70
     Davidson diagonalization with overlap
     ethr =  7.08E-03,  avg # of iterations =  1.0

     negative rho (up, down):  7.696E+00 8.647E+00

     total cpu time spent up to now is      177.0 secs

     total energy              =    -325.05584576 Ry
     estimated scf accuracy    <       4.27078363 Ry

     total magnetization       =     0.69 Bohr mag/cell
     absolute magnetization    =    42.06 Bohr mag/cell

     iteration # 60     ecut=    60.00 Ry     beta= 0.70
     Davidson diagonalization with overlap
     ethr =  7.08E-03,  avg # of iterations =  1.5

     negative rho (up, down):  7.802E+00 8.290E+00

     total cpu time spent up to now is      178.5 secs

     total energy              =    -324.92040322 Ry
     estimated scf accuracy    <       1.04016503 Ry

     total magnetization       =     0.52 Bohr mag/cell
     absolute magnetization    =    41.99 Bohr mag/cell

     iteration # 61     ecut=    60.00 Ry     beta= 0.70
     Davidson diagonalization with overlap
     ethr =  5.78E-03,  avg # of iterations =  1.7

     negative rho (up, down):  7.754E+00 7.967E+00

     total cpu time spent up to now is      180.0 secs

     total energy              =    -325.49890758 Ry
     estimated scf accuracy    <       0.76832961 Ry

     total magnetization       =     0.39 Bohr mag/cell
     absolute magnetization    =    41.94 Bohr mag/cell

     iteration # 62     ecut=    60.00 Ry     beta= 0.70
     Davidson diagonalization with overlap
     ethr =  4.27E-03,  avg # of iterations =  1.0

     negative rho (up, down):  7.822E+00 7.996E+00

     total cpu time spent up to now is      181.3 secs

     total energy              =    -325.32151297 Ry
     estimated scf accuracy    <       0.76150286 Ry

     total magnetization       =     0.52 Bohr mag/cell
     absolute magnetization    =    41.98 Bohr mag/cell

     iteration # 63     ecut=    60.00 Ry     beta= 0.70
     Davidson diagonalization with overlap
     ethr =  4.23E-03,  avg # of iterations =  1.0

     negative rho (up, down):  7.807E+00 8.061E+00

     total cpu time spent up to now is      182.5 secs

     total energy              =    -325.26297647 Ry
     estimated scf accuracy    <       1.23741323 Ry

     total magnetization       =     0.56 Bohr mag/cell
     absolute magnetization    =    41.96 Bohr mag/cell

     iteration # 64     ecut=    60.00 Ry     beta= 0.70
     Davidson diagonalization with overlap
     ethr =  4.23E-03,  avg # of iterations =  1.0

     negative rho (up, down):  7.800E+00 8.048E+00

     total cpu time spent up to now is      183.8 secs

     total energy              =    -325.29955108 Ry
     estimated scf accuracy    <       0.93035486 Ry

     total magnetization       =     0.55 Bohr mag/cell
     absolute magnetization    =    41.98 Bohr mag/cell

     iteration # 65     ecut=    60.00 Ry     beta= 0.70
     Davidson diagonalization with overlap
     ethr =  4.23E-03,  avg # of iterations =  1.0

     negative rho (up, down):  7.794E+00 8.100E+00

     total cpu time spent up to now is      185.0 secs

     total energy              =    -325.20510819 Ry
     estimated scf accuracy    <       1.21113626 Ry

     total magnetization       =     0.63 Bohr mag/cell
     absolute magnetization    =    42.01 Bohr mag/cell

     iteration # 66     ecut=    60.00 Ry     beta= 0.70
     Davidson diagonalization with overlap
     ethr =  4.23E-03,  avg # of iterations =  1.0

     negative rho (up, down):  7.744E+00 8.074E+00

     total cpu time spent up to now is      186.3 secs

     total energy              =    -325.23068230 Ry
     estimated scf accuracy    <       0.92109058 Ry

     total magnetization       =     0.71 Bohr mag/cell
     absolute magnetization    =    42.07 Bohr mag/cell

     iteration # 67     ecut=    60.00 Ry     beta= 0.70
     Davidson diagonalization with overlap
     ethr =  4.23E-03,  avg # of iterations =  1.5

     negative rho (up, down):  7.735E+00 7.957E+00

     total cpu time spent up to now is      187.8 secs

     total energy              =    -325.39580357 Ry
     estimated scf accuracy    <       0.33454666 Ry

     total magnetization       =     0.67 Bohr mag/cell
     absolute magnetization    =    42.03 Bohr mag/cell

     iteration # 68     ecut=    60.00 Ry     beta= 0.70
     Davidson diagonalization with overlap
     ethr =  1.86E-03,  avg # of iterations =  1.5

     negative rho (up, down):  7.729E+00 7.861E+00

     total cpu time spent up to now is      189.2 secs

     total energy              =    -325.64429322 Ry
     estimated scf accuracy    <       0.09497244 Ry

     total magnetization       =     0.83 Bohr mag/cell
     absolute magnetization    =    42.10 Bohr mag/cell

     iteration # 69     ecut=    60.00 Ry     beta= 0.70
     Davidson diagonalization with overlap
     ethr =  5.28E-04,  avg # of iterations =  1.5

     negative rho (up, down):  7.730E+00 7.848E+00

     total cpu time spent up to now is      190.8 secs

     total energy              =    -325.69627379 Ry
     estimated scf accuracy    <       0.05599495 Ry

     total magnetization       =     0.82 Bohr mag/cell
     absolute magnetization    =    42.08 Bohr mag/cell

     iteration # 70     ecut=    60.00 Ry     beta= 0.70
     Davidson diagonalization with overlap
     ethr =  3.11E-04,  avg # of iterations =  1.0

     negative rho (up, down):  7.726E+00 7.859E+00

     total cpu time spent up to now is      192.0 secs

     total energy              =    -325.66745763 Ry
     estimated scf accuracy    <       0.09482489 Ry

     total magnetization       =     0.78 Bohr mag/cell
     absolute magnetization    =    42.07 Bohr mag/cell

     iteration # 71     ecut=    60.00 Ry     beta= 0.70
     Davidson diagonalization with overlap
     ethr =  3.11E-04,  avg # of iterations =  1.5

     negative rho (up, down):  7.724E+00 7.843E+00

     total cpu time spent up to now is      193.5 secs

     total energy              =    -325.74175973 Ry
     estimated scf accuracy    <       0.01643446 Ry

     total magnetization       =     0.82 Bohr mag/cell
     absolute magnetization    =    42.09 Bohr mag/cell

     iteration # 72     ecut=    60.00 Ry     beta= 0.70
     Davidson diagonalization with overlap
     ethr =  9.13E-05,  avg # of iterations =  1.9

     negative rho (up, down):  7.723E+00 7.851E+00

     total cpu time spent up to now is      195.1 secs

     total energy              =    -325.70772776 Ry
     estimated scf accuracy    <       0.09992015 Ry

     total magnetization       =     0.74 Bohr mag/cell
     absolute magnetization    =    42.07 Bohr mag/cell

     iteration # 73     ecut=    60.00 Ry     beta= 0.70
     Davidson diagonalization with overlap
     ethr =  9.13E-05,  avg # of iterations =  1.3

     negative rho (up, down):  7.720E+00 7.861E+00

     total cpu time spent up to now is      196.4 secs

     total energy              =    -325.68775217 Ry
     estimated scf accuracy    <       0.07293652 Ry

     total magnetization       =     0.81 Bohr mag/cell
     absolute magnetization    =    42.08 Bohr mag/cell

     iteration # 74     ecut=    60.00 Ry     beta= 0.70
     Davidson diagonalization with overlap
     ethr =  9.13E-05,  avg # of iterations =  1.5

     negative rho (up, down):  7.716E+00 7.855E+00

     total cpu time spent up to now is      198.0 secs

     total energy              =    -325.73437726 Ry
     estimated scf accuracy    <       0.01694449 Ry

     total magnetization       =     0.90 Bohr mag/cell
     absolute magnetization    =    42.10 Bohr mag/cell

     iteration # 75     ecut=    60.00 Ry     beta= 0.70
     Davidson diagonalization with overlap
     ethr =  9.13E-05,  avg # of iterations =  1.6

     negative rho (up, down):  7.713E+00 7.864E+00

     total cpu time spent up to now is      199.4 secs

     total energy              =    -325.70608983 Ry
     estimated scf accuracy    <       0.04361801 Ry

     total magnetization       =     0.89 Bohr mag/cell
     absolute magnetization    =    42.09 Bohr mag/cell

     iteration # 76     ecut=    60.00 Ry     beta= 0.70
     Davidson diagonalization with overlap
     ethr =  9.13E-05,  avg # of iterations =  1.5

     negative rho (up, down):  7.712E+00 7.859E+00

     total cpu time spent up to now is      200.9 secs

     total energy              =    -325.71581410 Ry
     estimated scf accuracy    <       0.01016611 Ry

     total magnetization       =     1.00 Bohr mag/cell
     absolute magnetization    =    42.12 Bohr mag/cell

     iteration # 77     ecut=    60.00 Ry     beta= 0.70
     Davidson diagonalization with overlap
     ethr =  5.65E-05,  avg # of iterations =  1.7

     negative rho (up, down):  7.714E+00 7.856E+00

     total cpu time spent up to now is      202.3 secs

     total energy              =    -325.71434845 Ry
     estimated scf accuracy    <       0.01363517 Ry

     total magnetization       =     1.02 Bohr mag/cell
     absolute magnetization    =    42.12 Bohr mag/cell

     iteration # 78     ecut=    60.00 Ry     beta= 0.70
     Davidson diagonalization with overlap
     ethr =  5.65E-05,  avg # of iterations =  1.0

     negative rho (up, down):  7.717E+00 7.855E+00

     total cpu time spent up to now is      203.6 secs

     total energy              =    -325.71805263 Ry
     estimated scf accuracy    <       0.01565375 Ry

     total magnetization       =     0.99 Bohr mag/cell
     absolute magnetization    =    42.11 Bohr mag/cell

     iteration # 79     ecut=    60.00 Ry     beta= 0.70
     Davidson diagonalization with overlap
     ethr =  5.65E-05,  avg # of iterations =  1.0

     negative rho (up, down):  7.717E+00 7.855E+00

     total cpu time spent up to now is      204.8 secs

     total energy              =    -325.71854072 Ry
     estimated scf accuracy    <       0.02337421 Ry

     total magnetization       =     0.95 Bohr mag/cell
     absolute magnetization    =    42.11 Bohr mag/cell

     iteration # 80     ecut=    60.00 Ry     beta= 0.70
     Davidson diagonalization with overlap
     ethr =  5.65E-05,  avg # of iterations =  1.0

     negative rho (up, down):  7.711E+00 7.859E+00

     total cpu time spent up to now is      206.1 secs

     total energy              =    -325.71370274 Ry
     estimated scf accuracy    <       0.02373297 Ry

     total magnetization       =     0.93 Bohr mag/cell
     absolute magnetization    =    42.10 Bohr mag/cell

     iteration # 81     ecut=    60.00 Ry     beta= 0.70
     Davidson diagonalization with overlap
     ethr =  5.65E-05,  avg # of iterations =  1.5

     negative rho (up, down):  7.704E+00 7.868E+00

     total cpu time spent up to now is      207.6 secs

     total energy              =    -325.71007609 Ry
     estimated scf accuracy    <       0.02674119 Ry

     total magnetization       =     1.02 Bohr mag/cell
     absolute magnetization    =    42.11 Bohr mag/cell

     iteration # 82     ecut=    60.00 Ry     beta= 0.70
     Davidson diagonalization with overlap
     ethr =  5.65E-05,  avg # of iterations =  1.5

     negative rho (up, down):  7.707E+00 7.864E+00

     total cpu time spent up to now is      209.1 secs

     total energy              =    -325.71171369 Ry
     estimated scf accuracy    <       0.01149353 Ry

     total magnetization       =     1.09 Bohr mag/cell
     absolute magnetization    =    42.13 Bohr mag/cell

     iteration # 83     ecut=    60.00 Ry     beta= 0.70
     Davidson diagonalization with overlap
     ethr =  5.65E-05,  avg # of iterations =  1.1

     negative rho (up, down):  7.701E+00 7.871E+00

     total cpu time spent up to now is      210.4 secs

     total energy              =    -325.71376409 Ry
     estimated scf accuracy    <       0.01695450 Ry

     total magnetization       =     1.06 Bohr mag/cell
     absolute magnetization    =    42.12 Bohr mag/cell

     iteration # 84     ecut=    60.00 Ry     beta= 0.70
     Davidson diagonalization with overlap
     ethr =  5.65E-05,  avg # of iterations =  1.0

     negative rho (up, down):  7.698E+00 7.875E+00

     total cpu time spent up to now is      211.6 secs

     total energy              =    -325.71238182 Ry
     estimated scf accuracy    <       0.02122082 Ry

     total magnetization       =     1.09 Bohr mag/cell
     absolute magnetization    =    42.13 Bohr mag/cell

     iteration # 85     ecut=    60.00 Ry     beta= 0.70
     Davidson diagonalization with overlap
     ethr =  5.65E-05,  avg # of iterations =  1.0

     negative rho (up, down):  7.694E+00 7.880E+00

     total cpu time spent up to now is      212.9 secs

     total energy              =    -325.70925438 Ry
     estimated scf accuracy    <       0.03080483 Ry

     total magnetization       =     1.11 Bohr mag/cell
     absolute magnetization    =    42.13 Bohr mag/cell

     iteration # 86     ecut=    60.00 Ry     beta= 0.70
     Davidson diagonalization with overlap
     ethr =  5.65E-05,  avg # of iterations =  1.5

     negative rho (up, down):  7.709E+00 7.869E+00

     total cpu time spent up to now is      214.4 secs

     total energy              =    -325.69390269 Ry
     estimated scf accuracy    <       0.03613936 Ry

     total magnetization       =     1.14 Bohr mag/cell
     absolute magnetization    =    42.15 Bohr mag/cell

     iteration # 87     ecut=    60.00 Ry     beta= 0.70
     Davidson diagonalization with overlap
     ethr =  5.65E-05,  avg # of iterations =  2.1

     negative rho (up, down):  7.708E+00 7.864E+00

     total cpu time spent up to now is      216.0 secs

     total energy              =    -325.70999637 Ry
     estimated scf accuracy    <       0.03771171 Ry

     total magnetization       =     1.08 Bohr mag/cell
     absolute magnetization    =    42.14 Bohr mag/cell

     iteration # 88     ecut=    60.00 Ry     beta= 0.70
     Davidson diagonalization with overlap
     ethr =  5.65E-05,  avg # of iterations =  1.5

     negative rho (up, down):  7.708E+00 7.861E+00

     total cpu time spent up to now is      217.5 secs

     total energy              =    -325.71058919 Ry
     estimated scf accuracy    <       0.00734141 Ry

     total magnetization       =     1.08 Bohr mag/cell
     absolute magnetization    =    42.13 Bohr mag/cell

     iteration # 89     ecut=    60.00 Ry     beta= 0.70
     Davidson diagonalization with overlap
     ethr =  4.08E-05,  avg # of iterations =  1.5

     negative rho (up, down):  7.707E+00 7.861E+00

     total cpu time spent up to now is      219.0 secs

     total energy              =    -325.70655407 Ry
     estimated scf accuracy    <       0.00328308 Ry

     total magnetization       =     1.06 Bohr mag/cell
     absolute magnetization    =    42.13 Bohr mag/cell

     iteration # 90     ecut=    60.00 Ry     beta= 0.70
     Davidson diagonalization with overlap
     ethr =  1.82E-05,  avg # of iterations =  1.5

     negative rho (up, down):  7.706E+00 7.862E+00

     total cpu time spent up to now is      220.5 secs

     total energy              =    -325.70690502 Ry
     estimated scf accuracy    <       0.00125339 Ry

     total magnetization       =     1.07 Bohr mag/cell
     absolute magnetization    =    42.13 Bohr mag/cell

     iteration # 91     ecut=    60.00 Ry     beta= 0.70
     Davidson diagonalization with overlap
     ethr =  6.96E-06,  avg # of iterations =  1.0

     negative rho (up, down):  7.706E+00 7.862E+00

     total cpu time spent up to now is      221.7 secs

     total energy              =    -325.70761157 Ry
     estimated scf accuracy    <       0.00133848 Ry

     total magnetization       =     1.08 Bohr mag/cell
     absolute magnetization    =    42.13 Bohr mag/cell

     iteration # 92     ecut=    60.00 Ry     beta= 0.70
     Davidson diagonalization with overlap
     ethr =  6.96E-06,  avg # of iterations =  1.2

     negative rho (up, down):  7.707E+00 7.863E+00

     total cpu time spent up to now is      223.0 secs

     total energy              =    -325.70732049 Ry
     estimated scf accuracy    <       0.00217236 Ry

     total magnetization       =     1.08 Bohr mag/cell
     absolute magnetization    =    42.13 Bohr mag/cell

     iteration # 93     ecut=    60.00 Ry     beta= 0.70
     Davidson diagonalization with overlap
     ethr =  6.96E-06,  avg # of iterations =  1.5

     negative rho (up, down):  7.706E+00 7.862E+00

     total cpu time spent up to now is      224.4 secs

     total energy              =    -325.70723723 Ry
     estimated scf accuracy    <       0.00083685 Ry

     total magnetization       =     1.08 Bohr mag/cell
     absolute magnetization    =    42.13 Bohr mag/cell

     iteration # 94     ecut=    60.00 Ry     beta= 0.70
     Davidson diagonalization with overlap
     ethr =  4.65E-06,  avg # of iterations =  1.0

     negative rho (up, down):  7.706E+00 7.862E+00

     total cpu time spent up to now is      225.7 secs

     total energy              =    -325.70720307 Ry
     estimated scf accuracy    <       0.00059347 Ry

     total magnetization       =     1.08 Bohr mag/cell
     absolute magnetization    =    42.13 Bohr mag/cell

     iteration # 95     ecut=    60.00 Ry     beta= 0.70
     Davidson diagonalization with overlap
     ethr =  3.30E-06,  avg # of iterations =  1.0

     negative rho (up, down):  7.706E+00 7.862E+00

     total cpu time spent up to now is      226.9 secs

     total energy              =    -325.70702075 Ry
     estimated scf accuracy    <       0.00024623 Ry

     total magnetization       =     1.08 Bohr mag/cell
     absolute magnetization    =    42.13 Bohr mag/cell

     iteration # 96     ecut=    60.00 Ry     beta= 0.70
     Davidson diagonalization with overlap
     ethr =  1.37E-06,  avg # of iterations =  1.0

     negative rho (up, down):  7.706E+00 7.862E+00

     total cpu time spent up to now is      228.2 secs

     total energy              =    -325.70798507 Ry
     estimated scf accuracy    <       0.00034254 Ry

     total magnetization       =     1.08 Bohr mag/cell
     absolute magnetization    =    42.13 Bohr mag/cell

     iteration # 97     ecut=    60.00 Ry     beta= 0.70
     Davidson diagonalization with overlap
     ethr =  1.37E-06,  avg # of iterations =  1.5

     negative rho (up, down):  7.706E+00 7.862E+00

     total cpu time spent up to now is      229.7 secs

     total energy              =    -325.70727810 Ry
     estimated scf accuracy    <       0.00015043 Ry

     total magnetization       =     1.08 Bohr mag/cell
     absolute magnetization    =    42.13 Bohr mag/cell

     iteration # 98     ecut=    60.00 Ry     beta= 0.70
     Davidson diagonalization with overlap
     ethr =  8.36E-07,  avg # of iterations =  1.5

     negative rho (up, down):  7.706E+00 7.862E+00

     total cpu time spent up to now is      231.2 secs

     total energy              =    -325.70722130 Ry
     estimated scf accuracy    <       0.00003282 Ry

     total magnetization       =     1.08 Bohr mag/cell
     absolute magnetization    =    42.13 Bohr mag/cell

     iteration # 99     ecut=    60.00 Ry     beta= 0.70
     Davidson diagonalization with overlap
     ethr =  1.82E-07,  avg # of iterations =  1.7

     negative rho (up, down):  7.707E+00 7.862E+00

     total cpu time spent up to now is      232.7 secs

     total energy              =    -325.70694141 Ry
     estimated scf accuracy    <       0.00004244 Ry

     total magnetization       =     1.08 Bohr mag/cell
     absolute magnetization    =    42.13 Bohr mag/cell

     iteration #100     ecut=    60.00 Ry     beta= 0.70
     Davidson diagonalization with overlap
     ethr =  1.82E-07,  avg # of iterations =  1.0

     negative rho (up, down):  7.706E+00 7.862E+00

     total cpu time spent up to now is      233.9 secs

     total energy              =    -325.70717813 Ry
     estimated scf accuracy    <       0.00002135 Ry

     total magnetization       =     1.08 Bohr mag/cell
     absolute magnetization    =    42.13 Bohr mag/cell

     End of self-consistent calculation

     convergence NOT achieved after 100 iterations: stopping

     Writing config to output data dir ./out/pwscf.save/

     init_run     :      0.50s CPU      0.62s WALL (       1 calls)
     electrons    :    192.04s CPU    232.72s WALL (       2 calls)
     update_pot   :      0.05s CPU      0.05s WALL (       1 calls)
     forces       :      0.10s CPU      0.11s WALL (       1 calls)
     stress       :      0.22s CPU      0.23s WALL (       1 calls)

     Called by init_run:
     wfcinit      :      0.37s CPU      0.46s WALL (       1 calls)
     potinit      :      0.02s CPU      0.02s WALL (       1 calls)
     hinit0       :      0.11s CPU      0.13s WALL (       1 calls)

     Called by electrons:
     c_bands      :    166.85s CPU    202.72s WALL (     144 calls)
     sum_band     :     24.24s CPU     28.94s WALL (     144 calls)
     v_of_rho     :      0.57s CPU      0.61s WALL (     146 calls)
     newd         :      0.21s CPU      0.23s WALL (     146 calls)
     mix_rho      :      0.09s CPU      0.13s WALL (     144 calls)

     Called by c_bands:
     init_us_2    :      1.66s CPU      2.06s WALL (  129204 calls)
     init_us_2:cp :      1.51s CPU      1.90s WALL (  129204 calls)
     cegterg      :    157.67s CPU    187.15s WALL (   63936 calls)

     Called by *egterg:
     cdiaghg      :     25.79s CPU     29.54s WALL (  180541 calls)
     h_psi        :    106.97s CPU    128.47s WALL (  181429 calls)
     s_psi        :      3.87s CPU      4.62s WALL (  181429 calls)
     g_psi        :      0.26s CPU      0.31s WALL (  117049 calls)

     Called by h_psi:
     h_psi:calbec :      4.63s CPU      5.49s WALL (  181429 calls)
     vloc_psi     :     98.25s CPU    118.10s WALL (  181429 calls)
     add_vuspsi   :      3.39s CPU      4.04s WALL (  181429 calls)

     General routines
     calbec       :      6.24s CPU      7.45s WALL (  247585 calls)
     fft          :      0.25s CPU      0.29s WALL (    3687 calls)
     ffts         :      0.02s CPU      0.02s WALL (     580 calls)
     fftw         :    111.38s CPU    133.78s WALL ( 4864070 calls)
     interpolate  :      0.03s CPU      0.03s WALL (     292 calls)
     davcio       :      0.00s CPU      0.02s WALL (     462 calls)

     Parallel routines

     PWSCF        :   3m13.17s CPU   3m54.07s WALL


   This run was terminated on:  15:40: 0  18Jun2023            

=------------------------------------------------------------------------------=
   JOB DONE.
=------------------------------------------------------------------------------=
STOP 255
STOP 255
Note: The following floating-point exceptions are signalling: IEEE_DENORMAL
STOP 255
Note: The following floating-point exceptions are signalling: IEEE_DENORMAL
STOP 255
Note: The following floating-point exceptions are signalling: IEEE_DENORMAL
STOP 255
STOP 255
STOP 255
Note: The following floating-point exceptions are signalling: IEEE_DENORMAL
STOP 255
STOP 255
STOP 255
Note: The following floating-point exceptions are signalling: IEEE_DENORMAL
STOP 255
Note: The following floating-point exceptions are signalling: IEEE_DENORMAL
STOP 255
Note: The following floating-point exceptions are signalling: IEEE_DENORMAL
STOP 255
STOP 255
Note: The following floating-point exceptions are signalling: IEEE_DENORMAL
STOP 255
Note: The following floating-point exceptions are signalling: IEEE_DENORMAL
STOP 255
STOP 255
STOP 255
Note: The following floating-point exceptions are signalling: IEEE_DENORMAL
STOP 255
Note: The following floating-point exceptions are signalling: IEEE_DENORMAL
STOP 255
Note: The following floating-point exceptions are signalling: IEEE_DENORMAL
STOP 255
STOP 255
Note: The following floating-point exceptions are signalling: IEEE_DENORMAL
STOP 255
Note: The following floating-point exceptions are signalling: IEEE_DENORMAL
STOP 255
--------------------------------------------------------------------------
Primary job  terminated normally, but 1 process returned
a non-zero exit code. Per user-direction, the job has been aborted.
--------------------------------------------------------------------------
--------------------------------------------------------------------------
mpirun detected that one or more processes exited with non-zero status, thus causing
the job to be terminated. The first process to do so was:

  Process name: [[19899,1],0]
  Exit code:    255
--------------------------------------------------------------------------
