Ignoring PCI device with non-16bit domain.
Pass --enable-32bits-pci-domain to configure to support such devices
(warning: it would break the library ABI, don't enable unless really needed).

     Program PWSCF v.7.1 starts on 18Jun2023 at 15:32:38 

     This program is part of the open-source Quantum ESPRESSO suite
     for quantum simulation of materials; please cite
         "P. Giannozzi et al., J. Phys.:Condens. Matter 21 395502 (2009);
         "P. Giannozzi et al., J. Phys.:Condens. Matter 29 465901 (2017);
         "P. Giannozzi et al., J. Chem. Phys. 152 154105 (2020);
          URL http://www.quantum-espresso.org", 
     in publications or presentations arising from this work. More details at
     http://www.quantum-espresso.org/quote

     Parallel version (MPI), running on    24 processors

     MPI processes distributed on     1 nodes
     9565 MiB available memory on the printing compute node when the environment starts

     Reading input from Ni_cubic_bcc_atoms.in

     Current dimensions of program PWSCF are:
     Max number of different atomic species (ntypx) = 10
     Max number of k-points (npk) =  40000
     Max angular momentum in pseudopotentials (lmaxx) =  4

     K-points division:     npool     =       2
     R & G space division:  proc/nbgrp/npool/nimage =      12
     Subspace diagonalization in iterative solution of the eigenvalue problem:
     a serial algorithm will be used


     Parallelization info
     --------------------
     sticks:   dense  smooth     PW     G-vecs:    dense   smooth      PW
     Min          65      32     12                 1152      409      96
     Max          66      33     14                 1153      411      97
     Sum         785     395    151                13835     4921    1157

     Using Slab Decomposition



     bravais-lattice index     =            0
     lattice parameter (alat)  =       4.6716  a.u.
     unit-cell volume          =      78.4831 (a.u.)^3
     number of atoms/cell      =            1
     number of atomic types    =            1
     number of electrons       =        18.00
     number of Kohn-Sham states=           13
     kinetic-energy cutoff     =      60.0000  Ry
     charge density cutoff     =     480.0000  Ry
     scf convergence threshold =      1.0E-06
     mixing beta               =       0.7000
     number of iterations used =            8  TF        mixing
     energy convergence thresh.=      1.0E-05
     force convergence thresh. =      1.0E-04
     press convergence thresh. =      5.0E-01
     Exchange-correlation= PBE
                           (   1   4   3   4   0   0   0)
     nstep                     =           50


     celldm(1)=   4.671592  celldm(2)=   0.000000  celldm(3)=   0.000000
     celldm(4)=   0.000000  celldm(5)=   0.000000  celldm(6)=   0.000000

     crystal axes: (cart. coord. in units of alat)
               a(1) = (   1.000000   0.000000   0.000000 )  
               a(2) = (  -0.333330   0.942810   0.000000 )  
               a(3) = (  -0.333330  -0.471397   0.816502 )  

     reciprocal axes: (cart. coord. in units 2 pi/alat)
               b(1) = (  1.000000  0.353549  0.612358 )  
               b(2) = ( -0.000000  1.060659  0.612358 )  
               b(3) = (  0.000000 -0.000000  1.224737 )  


     PseudoPot. # 1 for Ni read from file:
     /home/jmgoff/work/automation/qe_pseudos/Ni.upf
     MD5 check sum: caf20d35bef94d268ef04de15446df97
     Pseudo is Ultrasoft + core correction, Zval = 18.0
     Generated using 'atomic' code by A. Dal Corso  v.7.1
     Using radial grid of 1195 points,  6 beta functions with: 
                l(1) =   0
                l(2) =   0
                l(3) =   1
                l(4) =   1
                l(5) =   2
                l(6) =   2
     Q(r) pseudized with 0 coefficients 


     atomic species   valence    mass     pseudopotential
        Ni            18.00    58.69340     Ni( 1.00)

     Starting magnetic structure 
     atomic species   magnetization
        Ni           1.000

     No symmetry found



   Cartesian axes

     site n.     atom                  positions (alat units)
         1           Ni  tau(   1) = (   0.0000000   0.0000000   0.0000000  )

     number of k points=   365  Marzari-Vanderbilt smearing, width (Ry)=  0.0100

     Number of k-points >= 100: set verbosity='high' to print them.

     Dense  grid:    13835 G-vectors     FFT dimensions: (  36,  36,  36)

     Smooth grid:     4921 G-vectors     FFT dimensions: (  24,  24,  24)

     Estimated max dynamical RAM per process >      10.26 MB

     Estimated total dynamical RAM >     239.54 MB

     Check: negative core charge=   -0.000001
     Generating pointlists ...
     new r_m :   0.4125 (alat units)  1.9270 (a.u.) for type    1

     Initial potential from superposition of free atoms

     starting charge      17.9998, renormalised to      18.0000
     Starting wfcs are   10 randomized atomic wfcs +    3 random wfcs

     total cpu time spent up to now is        0.7 secs

     Self-consistent Calculation

     iteration #  1     ecut=    60.00 Ry     beta= 0.70
     Davidson diagonalization with overlap
     ethr =  1.00E-02,  avg # of iterations =  5.5

     negative rho (up, down):  0.000E+00 7.357E-05

     total cpu time spent up to now is        2.9 secs

     total energy              =    -336.06397202 Ry
     estimated scf accuracy    <       8.28836471 Ry

     total magnetization       =     6.12 Bohr mag/cell
     absolute magnetization    =     6.12 Bohr mag/cell

     iteration #  2     ecut=    60.00 Ry     beta= 0.70
     Davidson diagonalization with overlap
     ethr =  1.00E-02,  avg # of iterations =  2.4

     total cpu time spent up to now is        4.5 secs

     total energy              =    -338.68538973 Ry
     estimated scf accuracy    <       6.25945804 Ry

     total magnetization       =     0.88 Bohr mag/cell
     absolute magnetization    =     1.07 Bohr mag/cell

     iteration #  3     ecut=    60.00 Ry     beta= 0.70
     Davidson diagonalization with overlap
     ethr =  1.00E-02,  avg # of iterations =  2.0

     negative rho (up, down):  0.000E+00 3.426E-04

     total cpu time spent up to now is        5.9 secs

     total energy              =    -339.63262463 Ry
     estimated scf accuracy    <       0.89536934 Ry

     total magnetization       =     1.59 Bohr mag/cell
     absolute magnetization    =     1.87 Bohr mag/cell

     iteration #  4     ecut=    60.00 Ry     beta= 0.70
     Davidson diagonalization with overlap
     ethr =  4.97E-03,  avg # of iterations =  2.7

     total cpu time spent up to now is        7.5 secs

     total energy              =    -334.41681881 Ry
     estimated scf accuracy    <     312.53162373 Ry

     total magnetization       =     0.71 Bohr mag/cell
     absolute magnetization    =    25.54 Bohr mag/cell

     iteration #  5     ecut=    60.00 Ry     beta= 0.70
     Davidson diagonalization with overlap
     ethr =  4.97E-03,  avg # of iterations =  2.1

     total cpu time spent up to now is        8.9 secs

     total energy              =    -339.52021978 Ry
     estimated scf accuracy    <       0.72740020 Ry

     total magnetization       =     0.86 Bohr mag/cell
     absolute magnetization    =     1.69 Bohr mag/cell

     iteration #  6     ecut=    60.00 Ry     beta= 0.70
     Davidson diagonalization with overlap
     ethr =  4.04E-03,  avg # of iterations =  1.5

     total cpu time spent up to now is       10.3 secs

     total energy              =    -339.52641238 Ry
     estimated scf accuracy    <       3.80440159 Ry

     total magnetization       =     0.66 Bohr mag/cell
     absolute magnetization    =     1.82 Bohr mag/cell

     iteration #  7     ecut=    60.00 Ry     beta= 0.70
     Davidson diagonalization with overlap
     ethr =  4.04E-03,  avg # of iterations =  2.0

     total cpu time spent up to now is       11.6 secs

     total energy              =    -339.57472580 Ry
     estimated scf accuracy    <       2.06713751 Ry

     total magnetization       =     0.58 Bohr mag/cell
     absolute magnetization    =     2.36 Bohr mag/cell

     iteration #  8     ecut=    60.00 Ry     beta= 0.70
     Davidson diagonalization with overlap
     ethr =  4.04E-03,  avg # of iterations =  1.0

     total cpu time spent up to now is       12.6 secs

     total energy              =    -339.57112505 Ry
     estimated scf accuracy    <       0.78111598 Ry

     total magnetization       =     0.59 Bohr mag/cell
     absolute magnetization    =     1.61 Bohr mag/cell

     iteration #  9     ecut=    60.00 Ry     beta= 0.70
     Davidson diagonalization with overlap
     ethr =  4.04E-03,  avg # of iterations =  1.0

     total cpu time spent up to now is       13.7 secs

     total energy              =    -339.58751847 Ry
     estimated scf accuracy    <       0.03748661 Ry

     total magnetization       =     0.59 Bohr mag/cell
     absolute magnetization    =     0.73 Bohr mag/cell

     iteration # 10     ecut=    60.00 Ry     beta= 0.70
     Davidson diagonalization with overlap
     ethr =  2.08E-04,  avg # of iterations =  1.6

     total cpu time spent up to now is       15.0 secs

     total energy              =    -339.58644440 Ry
     estimated scf accuracy    <       0.12770274 Ry

     total magnetization       =     0.60 Bohr mag/cell
     absolute magnetization    =     0.95 Bohr mag/cell

     iteration # 11     ecut=    60.00 Ry     beta= 0.70
     Davidson diagonalization with overlap
     ethr =  2.08E-04,  avg # of iterations =  1.1

     total cpu time spent up to now is       16.1 secs

     total energy              =    -339.58770671 Ry
     estimated scf accuracy    <       0.01336108 Ry

     total magnetization       =     0.60 Bohr mag/cell
     absolute magnetization    =     0.74 Bohr mag/cell

     iteration # 12     ecut=    60.00 Ry     beta= 0.70
     Davidson diagonalization with overlap
     ethr =  7.42E-05,  avg # of iterations =  1.1

     total cpu time spent up to now is       17.2 secs

     total energy              =    -339.58774815 Ry
     estimated scf accuracy    <       0.00557600 Ry

     total magnetization       =     0.59 Bohr mag/cell
     absolute magnetization    =     0.70 Bohr mag/cell

     iteration # 13     ecut=    60.00 Ry     beta= 0.70
     Davidson diagonalization with overlap
     ethr =  3.10E-05,  avg # of iterations =  1.1

     total cpu time spent up to now is       18.3 secs

     total energy              =    -339.58783093 Ry
     estimated scf accuracy    <       0.00039197 Ry

     total magnetization       =     0.59 Bohr mag/cell
     absolute magnetization    =     0.69 Bohr mag/cell

     iteration # 14     ecut=    60.00 Ry     beta= 0.70
     Davidson diagonalization with overlap
     ethr =  2.18E-06,  avg # of iterations =  1.8

     total cpu time spent up to now is       19.6 secs

     total energy              =    -339.58782771 Ry
     estimated scf accuracy    <       0.00081046 Ry

     total magnetization       =     0.59 Bohr mag/cell
     absolute magnetization    =     0.69 Bohr mag/cell

     iteration # 15     ecut=    60.00 Ry     beta= 0.70
     Davidson diagonalization with overlap
     ethr =  2.18E-06,  avg # of iterations =  1.4

     total cpu time spent up to now is       20.8 secs

     total energy              =    -339.58784350 Ry
     estimated scf accuracy    <       0.00000414 Ry

     total magnetization       =     0.59 Bohr mag/cell
     absolute magnetization    =     0.69 Bohr mag/cell

     iteration # 16     ecut=    60.00 Ry     beta= 0.70
     Davidson diagonalization with overlap
     ethr =  2.30E-08,  avg # of iterations =  1.9

     total cpu time spent up to now is       22.1 secs

     total energy              =    -339.58784421 Ry
     estimated scf accuracy    <       0.00000162 Ry

     total magnetization       =     0.59 Bohr mag/cell
     absolute magnetization    =     0.69 Bohr mag/cell

     iteration # 17     ecut=    60.00 Ry     beta= 0.70
     Davidson diagonalization with overlap
     ethr =  9.02E-09,  avg # of iterations =  1.1

     total cpu time spent up to now is       23.2 secs

     total energy              =    -339.58784427 Ry
     estimated scf accuracy    <       0.00000239 Ry

     total magnetization       =     0.59 Bohr mag/cell
     absolute magnetization    =     0.69 Bohr mag/cell

     iteration # 18     ecut=    60.00 Ry     beta= 0.70
     Davidson diagonalization with overlap
     ethr =  9.02E-09,  avg # of iterations =  1.0

     total cpu time spent up to now is       24.3 secs

     total energy              =    -339.58784423 Ry
     estimated scf accuracy    <       0.00000219 Ry

     total magnetization       =     0.59 Bohr mag/cell
     absolute magnetization    =     0.69 Bohr mag/cell

     iteration # 19     ecut=    60.00 Ry     beta= 0.70
     Davidson diagonalization with overlap
     ethr =  9.02E-09,  avg # of iterations =  1.3

     Magnetic moment per site  (integrated on atomic sphere of radius R)
     atom   1 (R=0.413)  charge= 16.5997  magn=  0.6345

     total cpu time spent up to now is       25.4 secs

     End of self-consistent calculation

     Number of k-points >= 100: set verbosity='high' to print the bands.

     the Fermi energy is    16.4127 ev

!    total energy              =    -339.58784443 Ry
     estimated scf accuracy    <       0.00000061 Ry
     smearing contrib. (-TS)   =       0.00043869 Ry
     internal energy E=F+TS    =    -339.58828312 Ry

     The total energy is F=E-TS. E is the sum of the following terms:
     one-electron contribution =    -194.58531102 Ry
     hartree contribution      =     107.88023299 Ry
     xc contribution           =     -34.29863360 Ry
     ewald contribution        =    -218.58457148 Ry

     total magnetization       =     0.59 Bohr mag/cell
     absolute magnetization    =     0.68 Bohr mag/cell

     convergence has been achieved in  19 iterations

     Forces acting on atoms (cartesian axes, Ry/au):

     atom    1 type  1   force =     0.00000000    0.00000000    0.00000000

     Total force =     0.000000     Total SCF correction =     0.000964


     Computing stress (Cartesian axis) and pressure

          total   stress  (Ry/bohr**3)                   (kbar)     P=     -119.50
  -0.00081230  -0.00000018  -0.00000022         -119.49       -0.03       -0.03
  -0.00000018  -0.00081211   0.00000015           -0.03     -119.46        0.02
  -0.00000022   0.00000015  -0.00081260           -0.03        0.02     -119.54


     BFGS Geometry Optimization
     Energy error            =      0.0E+00 Ry
     Gradient error          =      0.0E+00 Ry/Bohr
     Cell gradient error     =      1.2E+02 kbar

     number of scf cycles    =   1
     number of bfgs steps    =   0

     enthalpy           new  =    -339.5878444302 Ry

     new trust radius        =       0.0359944023 bohr
     new conv_thr            =       0.0000010000 Ry

     new unit-cell volume =     73.79797 a.u.^3 (    10.93573 Ang^3 )
     density =      8.91232 g/cm^3

CELL_PARAMETERS (bohr)
   4.576722732  -0.000020778  -0.000025460
  -1.525577218   4.315010297   0.000024612
  -1.525568622  -2.157445547   3.736876158

ATOMIC_POSITIONS (crystal)
Ni            0.0000000000        0.0000000000        0.0000000000



     Writing config-only to output data dir ./out/pwscf.save/
     NEW-OLD atomic charge density approx. for the potential
     extrapolated charge   16.85726, renormalised to   18.00000
     Generating pointlists ...
     new r_m :   0.4041 (alat units)  1.8879 (a.u.) for type    1

     total cpu time spent up to now is       25.9 secs

     Self-consistent Calculation

     iteration #  1     ecut=    60.00 Ry     beta= 0.70
     Davidson diagonalization with overlap
     ethr =  1.00E-06,  avg # of iterations =  6.5

     total cpu time spent up to now is       29.0 secs

     total energy              =    -335.34196637 Ry
     estimated scf accuracy    <       5.00200245 Ry

     total magnetization       =    -0.00 Bohr mag/cell
     absolute magnetization    =     0.09 Bohr mag/cell

     iteration #  2     ecut=    60.00 Ry     beta= 0.70
     Davidson diagonalization with overlap
     ethr =  1.00E-02,  avg # of iterations =  3.1

     total cpu time spent up to now is       30.8 secs

     total energy              =    -339.26189677 Ry
     estimated scf accuracy    <      15.40609368 Ry

     total magnetization       =     0.25 Bohr mag/cell
     absolute magnetization    =     0.75 Bohr mag/cell

     iteration #  3     ecut=    60.00 Ry     beta= 0.70
     Davidson diagonalization with overlap
     ethr =  1.00E-02,  avg # of iterations =  2.1

     total cpu time spent up to now is       32.2 secs

     total energy              =    -339.77237508 Ry
     estimated scf accuracy    <      21.09295744 Ry

     total magnetization       =     0.24 Bohr mag/cell
     absolute magnetization    =     6.42 Bohr mag/cell

     iteration #  4     ecut=    60.00 Ry     beta= 0.70
     Davidson diagonalization with overlap
     ethr =  1.00E-02,  avg # of iterations =  2.0

     total cpu time spent up to now is       33.5 secs

     total energy              =    -339.97410813 Ry
     estimated scf accuracy    <       2.58442806 Ry

     total magnetization       =     0.19 Bohr mag/cell
     absolute magnetization    =     0.29 Bohr mag/cell

     iteration #  5     ecut=    60.00 Ry     beta= 0.70
     Davidson diagonalization with overlap
     ethr =  1.00E-02,  avg # of iterations =  1.0

     total cpu time spent up to now is       34.6 secs

     total energy              =    -339.61698538 Ry
     estimated scf accuracy    <       2.00557873 Ry

     total magnetization       =     0.18 Bohr mag/cell
     absolute magnetization    =     0.28 Bohr mag/cell

     iteration #  6     ecut=    60.00 Ry     beta= 0.70
     Davidson diagonalization with overlap
     ethr =  1.00E-02,  avg # of iterations =  1.0

     total cpu time spent up to now is       35.7 secs

     total energy              =    -339.64407817 Ry
     estimated scf accuracy    <       1.20098023 Ry

     total magnetization       =     0.18 Bohr mag/cell
     absolute magnetization    =     1.25 Bohr mag/cell

     iteration #  7     ecut=    60.00 Ry     beta= 0.70
     Davidson diagonalization with overlap
     ethr =  6.67E-03,  avg # of iterations =  1.0

     total cpu time spent up to now is       36.8 secs

     total energy              =    -339.52716363 Ry
     estimated scf accuracy    <       0.38072113 Ry

     total magnetization       =     0.18 Bohr mag/cell
     absolute magnetization    =     0.22 Bohr mag/cell

     iteration #  8     ecut=    60.00 Ry     beta= 0.70
     Davidson diagonalization with overlap
     ethr =  2.12E-03,  avg # of iterations =  2.0

     total cpu time spent up to now is       38.0 secs

     total energy              =    -339.58711364 Ry
     estimated scf accuracy    <       0.01314762 Ry

     total magnetization       =     0.18 Bohr mag/cell
     absolute magnetization    =     0.24 Bohr mag/cell

     iteration #  9     ecut=    60.00 Ry     beta= 0.70
     Davidson diagonalization with overlap
     ethr =  7.30E-05,  avg # of iterations =  2.2

     total cpu time spent up to now is       39.4 secs

     total energy              =    -339.58848042 Ry
     estimated scf accuracy    <       0.02094490 Ry

     total magnetization       =     0.18 Bohr mag/cell
     absolute magnetization    =     0.31 Bohr mag/cell

     iteration # 10     ecut=    60.00 Ry     beta= 0.70
     Davidson diagonalization with overlap
     ethr =  7.30E-05,  avg # of iterations =  1.0

     total cpu time spent up to now is       40.4 secs

     total energy              =    -339.58823178 Ry
     estimated scf accuracy    <       0.00582507 Ry

     total magnetization       =     0.18 Bohr mag/cell
     absolute magnetization    =     0.23 Bohr mag/cell

     iteration # 11     ecut=    60.00 Ry     beta= 0.70
     Davidson diagonalization with overlap
     ethr =  3.24E-05,  avg # of iterations =  1.0

     total cpu time spent up to now is       41.5 secs

     total energy              =    -339.58843936 Ry
     estimated scf accuracy    <       0.00036043 Ry

     total magnetization       =     0.18 Bohr mag/cell
     absolute magnetization    =     0.21 Bohr mag/cell

     iteration # 12     ecut=    60.00 Ry     beta= 0.70
     Davidson diagonalization with overlap
     ethr =  2.00E-06,  avg # of iterations =  2.2

     total cpu time spent up to now is       42.9 secs

     total energy              =    -339.58848668 Ry
     estimated scf accuracy    <       0.00048313 Ry

     total magnetization       =     0.20 Bohr mag/cell
     absolute magnetization    =     0.22 Bohr mag/cell

     iteration # 13     ecut=    60.00 Ry     beta= 0.70
     Davidson diagonalization with overlap
     ethr =  2.00E-06,  avg # of iterations =  2.0

     total cpu time spent up to now is       44.3 secs

     total energy              =    -339.58846507 Ry
     estimated scf accuracy    <       0.00135428 Ry

     total magnetization       =     0.19 Bohr mag/cell
     absolute magnetization    =     0.22 Bohr mag/cell

     iteration # 14     ecut=    60.00 Ry     beta= 0.70
     Davidson diagonalization with overlap
     ethr =  2.00E-06,  avg # of iterations =  2.0

     total cpu time spent up to now is       45.5 secs

     total energy              =    -339.58850671 Ry
     estimated scf accuracy    <       0.00001167 Ry

     total magnetization       =     0.20 Bohr mag/cell
     absolute magnetization    =     0.23 Bohr mag/cell

     iteration # 15     ecut=    60.00 Ry     beta= 0.70
     Davidson diagonalization with overlap
     ethr =  6.48E-08,  avg # of iterations =  1.7

     total cpu time spent up to now is       46.7 secs

     total energy              =    -339.58850972 Ry
     estimated scf accuracy    <       0.00002672 Ry

     total magnetization       =     0.21 Bohr mag/cell
     absolute magnetization    =     0.23 Bohr mag/cell

     iteration # 16     ecut=    60.00 Ry     beta= 0.70
     Davidson diagonalization with overlap
     ethr =  6.48E-08,  avg # of iterations =  2.0

     total cpu time spent up to now is       48.1 secs

     total energy              =    -339.58850251 Ry
     estimated scf accuracy    <       0.00035520 Ry

     total magnetization       =     0.21 Bohr mag/cell
     absolute magnetization    =     0.24 Bohr mag/cell

     iteration # 17     ecut=    60.00 Ry     beta= 0.70
     Davidson diagonalization with overlap
     ethr =  6.48E-08,  avg # of iterations =  2.0

     total cpu time spent up to now is       49.4 secs

     total energy              =    -339.58848177 Ry
     estimated scf accuracy    <       0.00001852 Ry

     total magnetization       =     0.21 Bohr mag/cell
     absolute magnetization    =     0.24 Bohr mag/cell

     iteration # 18     ecut=    60.00 Ry     beta= 0.70
     Davidson diagonalization with overlap
     ethr =  6.48E-08,  avg # of iterations =  2.0

     total cpu time spent up to now is       50.8 secs

     total energy              =    -339.58850054 Ry
     estimated scf accuracy    <       0.00015684 Ry

     total magnetization       =     0.19 Bohr mag/cell
     absolute magnetization    =     0.21 Bohr mag/cell

     iteration # 19     ecut=    60.00 Ry     beta= 0.70
     Davidson diagonalization with overlap
     ethr =  6.48E-08,  avg # of iterations =  2.0

     total cpu time spent up to now is       52.1 secs

     total energy              =    -339.58843131 Ry
     estimated scf accuracy    <       0.00153066 Ry

     total magnetization       =     0.20 Bohr mag/cell
     absolute magnetization    =     0.24 Bohr mag/cell

     iteration # 20     ecut=    60.00 Ry     beta= 0.70
     Davidson diagonalization with overlap
     ethr =  6.48E-08,  avg # of iterations =  2.0

     total cpu time spent up to now is       53.4 secs

     total energy              =    -339.58849177 Ry
     estimated scf accuracy    <       0.00011066 Ry

     total magnetization       =     0.16 Bohr mag/cell
     absolute magnetization    =     0.19 Bohr mag/cell

     iteration # 21     ecut=    60.00 Ry     beta= 0.70
     Davidson diagonalization with overlap
     ethr =  6.48E-08,  avg # of iterations =  1.0

     total cpu time spent up to now is       54.5 secs

     total energy              =    -339.58846507 Ry
     estimated scf accuracy    <       0.00016871 Ry

     total magnetization       =     0.17 Bohr mag/cell
     absolute magnetization    =     0.19 Bohr mag/cell

     iteration # 22     ecut=    60.00 Ry     beta= 0.70
     Davidson diagonalization with overlap
     ethr =  6.48E-08,  avg # of iterations =  2.0

     total cpu time spent up to now is       55.8 secs

     total energy              =    -339.58845791 Ry
     estimated scf accuracy    <       0.00001948 Ry

     total magnetization       =     0.14 Bohr mag/cell
     absolute magnetization    =     0.16 Bohr mag/cell

     iteration # 23     ecut=    60.00 Ry     beta= 0.70
     Davidson diagonalization with overlap
     ethr =  6.48E-08,  avg # of iterations =  2.0

     total cpu time spent up to now is       57.2 secs

     total energy              =    -339.58847012 Ry
     estimated scf accuracy    <       0.00000547 Ry

     total magnetization       =     0.11 Bohr mag/cell
     absolute magnetization    =     0.13 Bohr mag/cell

     iteration # 24     ecut=    60.00 Ry     beta= 0.70
     Davidson diagonalization with overlap
     ethr =  3.04E-08,  avg # of iterations =  2.0

     total cpu time spent up to now is       58.6 secs

     total energy              =    -339.58847935 Ry
     estimated scf accuracy    <       0.00000160 Ry

     total magnetization       =     0.10 Bohr mag/cell
     absolute magnetization    =     0.11 Bohr mag/cell

     iteration # 25     ecut=    60.00 Ry     beta= 0.70
     Davidson diagonalization with overlap
     ethr =  8.90E-09,  avg # of iterations =  1.5

     total cpu time spent up to now is       59.8 secs

     total energy              =    -339.58847919 Ry
     estimated scf accuracy    <       0.00000194 Ry

     total magnetization       =     0.10 Bohr mag/cell
     absolute magnetization    =     0.11 Bohr mag/cell

     iteration # 26     ecut=    60.00 Ry     beta= 0.70
     Davidson diagonalization with overlap
     ethr =  8.90E-09,  avg # of iterations =  2.0

     total cpu time spent up to now is       61.1 secs

     total energy              =    -339.58847954 Ry
     estimated scf accuracy    <       0.00000558 Ry

     total magnetization       =     0.10 Bohr mag/cell
     absolute magnetization    =     0.11 Bohr mag/cell

     iteration # 27     ecut=    60.00 Ry     beta= 0.70
     Davidson diagonalization with overlap
     ethr =  8.90E-09,  avg # of iterations =  1.0

     total cpu time spent up to now is       62.2 secs

     total energy              =    -339.58847785 Ry
     estimated scf accuracy    <       0.00000738 Ry

     total magnetization       =     0.10 Bohr mag/cell
     absolute magnetization    =     0.11 Bohr mag/cell

     iteration # 28     ecut=    60.00 Ry     beta= 0.70
     Davidson diagonalization with overlap
     ethr =  8.90E-09,  avg # of iterations =  2.0

     Magnetic moment per site  (integrated on atomic sphere of radius R)
     atom   1 (R=0.404)  charge= 16.5503  magn=  0.0972

     total cpu time spent up to now is       63.6 secs

     End of self-consistent calculation

     Number of k-points >= 100: set verbosity='high' to print the bands.

     the Fermi energy is    17.6012 ev

!    total energy              =    -339.58847973 Ry
     estimated scf accuracy    <       0.00000059 Ry
     smearing contrib. (-TS)   =       0.00057332 Ry
     internal energy E=F+TS    =    -339.58905305 Ry

     The total energy is F=E-TS. E is the sum of the following terms:
     one-electron contribution =    -187.10879097 Ry
     hartree contribution      =     104.95890309 Ry
     xc contribution           =     -34.32346698 Ry
     ewald contribution        =    -223.11569818 Ry

     total magnetization       =     0.09 Bohr mag/cell
     absolute magnetization    =     0.10 Bohr mag/cell

     convergence has been achieved in  28 iterations

     Forces acting on atoms (cartesian axes, Ry/au):

     atom    1 type  1   force =     0.00000000    0.00000000    0.00000000

     Total force =     0.000000     Total SCF correction =     0.000832


     Computing stress (Cartesian axis) and pressure

          total   stress  (Ry/bohr**3)                   (kbar)     P=      -24.49
  -0.00016625  -0.00000001  -0.00000011          -24.46       -0.00       -0.02
  -0.00000001  -0.00016661   0.00000002           -0.00      -24.51        0.00
  -0.00000011   0.00000002  -0.00016649           -0.02        0.00      -24.49

     Energy error            =      6.4E-04 Ry
     Gradient error          =      0.0E+00 Ry/Bohr
     Cell gradient error     =      2.5E+01 kbar

     number of scf cycles    =   2
     number of bfgs steps    =   1

     enthalpy           old  =    -339.5878444302 Ry
     enthalpy           new  =    -339.5884797286 Ry

     CASE: enthalpy          _new < enthalpy          _old

     new trust radius        =       0.0087270946 bohr
     new conv_thr            =       0.0000000010 Ry

     new unit-cell volume =     72.68015 a.u.^3 (    10.77009 Ang^3 )
     density =      9.04939 g/cm^3

CELL_PARAMETERS (bohr)
   4.553524925  -0.000021709  -0.000040489
  -1.517845577   4.293092724   0.000032292
  -1.517847936  -2.146484161   3.717911287

ATOMIC_POSITIONS (crystal)
Ni            0.0000000000        0.0000000000        0.0000000000



     Writing config-only to output data dir ./out/pwscf.save/
     NEW-OLD atomic charge density approx. for the potential
     extrapolated charge   17.72316, renormalised to   18.00000
     Generating pointlists ...

     total cpu time spent up to now is       64.0 secs

     Self-consistent Calculation

     iteration #  1     ecut=    60.00 Ry     beta= 0.70
     Davidson diagonalization with overlap
     ethr =  1.00E-06,  avg # of iterations =  5.1

     total cpu time spent up to now is       66.6 secs

     total energy              =    -339.25103366 Ry
     estimated scf accuracy    <       0.40450109 Ry

     total magnetization       =     0.16 Bohr mag/cell
     absolute magnetization    =     0.18 Bohr mag/cell

     iteration #  2     ecut=    60.00 Ry     beta= 0.70
     Davidson diagonalization with overlap
     ethr =  2.25E-03,  avg # of iterations =  2.3

     total cpu time spent up to now is       68.1 secs

     total energy              =    -339.72755852 Ry
     estimated scf accuracy    <       1.97316688 Ry

     total magnetization       =     0.13 Bohr mag/cell
     absolute magnetization    =     1.12 Bohr mag/cell

     iteration #  3     ecut=    60.00 Ry     beta= 0.70
     Davidson diagonalization with overlap
     ethr =  2.25E-03,  avg # of iterations =  2.0

     total cpu time spent up to now is       69.5 secs

     total energy              =    -338.68852045 Ry
     estimated scf accuracy    <      55.48404456 Ry

     total magnetization       =     0.16 Bohr mag/cell
     absolute magnetization    =    10.74 Bohr mag/cell

     iteration #  4     ecut=    60.00 Ry     beta= 0.70
     Davidson diagonalization with overlap
     ethr =  2.25E-03,  avg # of iterations =  2.0

     total cpu time spent up to now is       70.9 secs

     total energy              =    -339.61090988 Ry
     estimated scf accuracy    <       0.23297362 Ry

     total magnetization       =     0.13 Bohr mag/cell
     absolute magnetization    =     0.29 Bohr mag/cell

     iteration #  5     ecut=    60.00 Ry     beta= 0.70
     Davidson diagonalization with overlap
     ethr =  1.29E-03,  avg # of iterations =  1.0

     total cpu time spent up to now is       72.0 secs

     total energy              =    -339.61548653 Ry
     estimated scf accuracy    <       0.17132498 Ry

     total magnetization       =     0.13 Bohr mag/cell
     absolute magnetization    =     0.16 Bohr mag/cell

     iteration #  6     ecut=    60.00 Ry     beta= 0.70
     Davidson diagonalization with overlap
     ethr =  9.52E-04,  avg # of iterations =  1.0

     total cpu time spent up to now is       73.1 secs

     total energy              =    -339.58905303 Ry
     estimated scf accuracy    <       0.18472915 Ry

     total magnetization       =     0.13 Bohr mag/cell
     absolute magnetization    =     0.35 Bohr mag/cell

     iteration #  7     ecut=    60.00 Ry     beta= 0.70
     Davidson diagonalization with overlap
     ethr =  9.52E-04,  avg # of iterations =  1.0

     total cpu time spent up to now is       74.2 secs

     total energy              =    -339.59388974 Ry
     estimated scf accuracy    <       0.03889017 Ry

     total magnetization       =     0.13 Bohr mag/cell
     absolute magnetization    =     0.16 Bohr mag/cell

     iteration #  8     ecut=    60.00 Ry     beta= 0.70
     Davidson diagonalization with overlap
     ethr =  2.16E-04,  avg # of iterations =  1.0

     total cpu time spent up to now is       75.2 secs

     total energy              =    -339.59307433 Ry
     estimated scf accuracy    <       0.03151017 Ry

     total magnetization       =     0.13 Bohr mag/cell
     absolute magnetization    =     0.15 Bohr mag/cell

     iteration #  9     ecut=    60.00 Ry     beta= 0.70
     Davidson diagonalization with overlap
     ethr =  1.75E-04,  avg # of iterations =  1.0

     total cpu time spent up to now is       76.3 secs

     total energy              =    -339.59300823 Ry
     estimated scf accuracy    <       0.02686179 Ry

     total magnetization       =     0.13 Bohr mag/cell
     absolute magnetization    =     0.17 Bohr mag/cell

     iteration # 10     ecut=    60.00 Ry     beta= 0.70
     Davidson diagonalization with overlap
     ethr =  1.49E-04,  avg # of iterations =  1.0

     total cpu time spent up to now is       77.4 secs

     total energy              =    -339.58519135 Ry
     estimated scf accuracy    <       0.02375126 Ry

     total magnetization       =     0.13 Bohr mag/cell
     absolute magnetization    =     0.14 Bohr mag/cell

     iteration # 11     ecut=    60.00 Ry     beta= 0.70
     Davidson diagonalization with overlap
     ethr =  1.32E-04,  avg # of iterations =  1.5

     total cpu time spent up to now is       78.5 secs

     total energy              =    -339.58846254 Ry
     estimated scf accuracy    <       0.00231952 Ry

     total magnetization       =     0.12 Bohr mag/cell
     absolute magnetization    =     0.16 Bohr mag/cell

     iteration # 12     ecut=    60.00 Ry     beta= 0.70
     Davidson diagonalization with overlap
     ethr =  1.29E-05,  avg # of iterations =  1.2

     total cpu time spent up to now is       79.7 secs

     total energy              =    -339.58856753 Ry
     estimated scf accuracy    <       0.00072143 Ry

     total magnetization       =     0.12 Bohr mag/cell
     absolute magnetization    =     0.15 Bohr mag/cell

     iteration # 13     ecut=    60.00 Ry     beta= 0.70
     Davidson diagonalization with overlap
     ethr =  4.01E-06,  avg # of iterations =  1.1

     total cpu time spent up to now is       80.8 secs

     total energy              =    -339.58859907 Ry
     estimated scf accuracy    <       0.00233192 Ry

     total magnetization       =     0.12 Bohr mag/cell
     absolute magnetization    =     0.17 Bohr mag/cell

     iteration # 14     ecut=    60.00 Ry     beta= 0.70
     Davidson diagonalization with overlap
     ethr =  4.01E-06,  avg # of iterations =  1.0

     total cpu time spent up to now is       81.8 secs

     total energy              =    -339.58853140 Ry
     estimated scf accuracy    <       0.00326269 Ry

     total magnetization       =     0.12 Bohr mag/cell
     absolute magnetization    =     0.17 Bohr mag/cell

     iteration # 15     ecut=    60.00 Ry     beta= 0.70
     Davidson diagonalization with overlap
     ethr =  4.01E-06,  avg # of iterations =  1.1

     total cpu time spent up to now is       82.9 secs

     total energy              =    -339.58851286 Ry
     estimated scf accuracy    <       0.00259282 Ry

     total magnetization       =     0.12 Bohr mag/cell
     absolute magnetization    =     0.16 Bohr mag/cell

     iteration # 16     ecut=    60.00 Ry     beta= 0.70
     Davidson diagonalization with overlap
     ethr =  4.01E-06,  avg # of iterations =  1.9

     total cpu time spent up to now is       84.2 secs

     total energy              =    -339.58856472 Ry
     estimated scf accuracy    <       0.00021403 Ry

     total magnetization       =     0.12 Bohr mag/cell
     absolute magnetization    =     0.14 Bohr mag/cell

     iteration # 17     ecut=    60.00 Ry     beta= 0.70
     Davidson diagonalization with overlap
     ethr =  1.19E-06,  avg # of iterations =  1.0

     total cpu time spent up to now is       85.3 secs

     total energy              =    -339.58856711 Ry
     estimated scf accuracy    <       0.00018475 Ry

     total magnetization       =     0.12 Bohr mag/cell
     absolute magnetization    =     0.14 Bohr mag/cell

     iteration # 18     ecut=    60.00 Ry     beta= 0.70
     Davidson diagonalization with overlap
     ethr =  1.03E-06,  avg # of iterations =  2.0

     total cpu time spent up to now is       86.6 secs

     total energy              =    -339.58853879 Ry
     estimated scf accuracy    <       0.00123798 Ry

     total magnetization       =     0.12 Bohr mag/cell
     absolute magnetization    =     0.14 Bohr mag/cell

     iteration # 19     ecut=    60.00 Ry     beta= 0.70
     Davidson diagonalization with overlap
     ethr =  1.03E-06,  avg # of iterations =  2.0

     total cpu time spent up to now is       87.9 secs

     total energy              =    -339.58856610 Ry
     estimated scf accuracy    <       0.00014227 Ry

     total magnetization       =     0.12 Bohr mag/cell
     absolute magnetization    =     0.14 Bohr mag/cell

     iteration # 20     ecut=    60.00 Ry     beta= 0.70
     Davidson diagonalization with overlap
     ethr =  7.90E-07,  avg # of iterations =  1.0

     total cpu time spent up to now is       89.0 secs

     total energy              =    -339.58855700 Ry
     estimated scf accuracy    <       0.00031142 Ry

     total magnetization       =     0.12 Bohr mag/cell
     absolute magnetization    =     0.14 Bohr mag/cell

     iteration # 21     ecut=    60.00 Ry     beta= 0.70
     Davidson diagonalization with overlap
     ethr =  7.90E-07,  avg # of iterations =  1.5

     total cpu time spent up to now is       90.2 secs

     total energy              =    -339.58856306 Ry
     estimated scf accuracy    <       0.00000475 Ry

     total magnetization       =     0.12 Bohr mag/cell
     absolute magnetization    =     0.14 Bohr mag/cell

     iteration # 22     ecut=    60.00 Ry     beta= 0.70
     Davidson diagonalization with overlap
     ethr =  2.64E-08,  avg # of iterations =  1.0

     total cpu time spent up to now is       91.2 secs

     total energy              =    -339.58856322 Ry
     estimated scf accuracy    <       0.00000027 Ry

     total magnetization       =     0.12 Bohr mag/cell
     absolute magnetization    =     0.14 Bohr mag/cell

     iteration # 23     ecut=    60.00 Ry     beta= 0.70
     Davidson diagonalization with overlap
     ethr =  1.52E-09,  avg # of iterations =  1.4

     total cpu time spent up to now is       92.4 secs

     total energy              =    -339.58856327 Ry
     estimated scf accuracy    <       0.00000010 Ry

     total magnetization       =     0.12 Bohr mag/cell
     absolute magnetization    =     0.14 Bohr mag/cell

     iteration # 24     ecut=    60.00 Ry     beta= 0.70
     Davidson diagonalization with overlap
     ethr =  5.78E-10,  avg # of iterations =  1.0

     total cpu time spent up to now is       93.5 secs

     total energy              =    -339.58856328 Ry
     estimated scf accuracy    <       0.00000006 Ry

     total magnetization       =     0.12 Bohr mag/cell
     absolute magnetization    =     0.13 Bohr mag/cell

     iteration # 25     ecut=    60.00 Ry     beta= 0.70
     Davidson diagonalization with overlap
     ethr =  3.20E-10,  avg # of iterations =  1.0

     total cpu time spent up to now is       94.6 secs

     total energy              =    -339.58856326 Ry
     estimated scf accuracy    <       0.00000007 Ry

     total magnetization       =     0.12 Bohr mag/cell
     absolute magnetization    =     0.13 Bohr mag/cell

     iteration # 26     ecut=    60.00 Ry     beta= 0.70
     Davidson diagonalization with overlap
     ethr =  3.20E-10,  avg # of iterations =  1.5

     total cpu time spent up to now is       95.9 secs

     total energy              =    -339.58856327 Ry
     estimated scf accuracy    <       0.00000063 Ry

     total magnetization       =     0.12 Bohr mag/cell
     absolute magnetization    =     0.14 Bohr mag/cell

     iteration # 27     ecut=    60.00 Ry     beta= 0.70
     Davidson diagonalization with overlap
     ethr =  3.20E-10,  avg # of iterations =  1.5

     total cpu time spent up to now is       97.2 secs

     total energy              =    -339.58856324 Ry
     estimated scf accuracy    <       0.00000023 Ry

     total magnetization       =     0.12 Bohr mag/cell
     absolute magnetization    =     0.13 Bohr mag/cell

     iteration # 28     ecut=    60.00 Ry     beta= 0.70
     Davidson diagonalization with overlap
     ethr =  3.20E-10,  avg # of iterations =  1.5

     total cpu time spent up to now is       98.4 secs

     total energy              =    -339.58856202 Ry
     estimated scf accuracy    <       0.00000062 Ry

     total magnetization       =     0.12 Bohr mag/cell
     absolute magnetization    =     0.14 Bohr mag/cell

     iteration # 29     ecut=    60.00 Ry     beta= 0.70
     Davidson diagonalization with overlap
     ethr =  3.20E-10,  avg # of iterations =  2.9

     total cpu time spent up to now is      100.1 secs

     total energy              =    -339.58856123 Ry
     estimated scf accuracy    <       0.00000029 Ry

     total magnetization       =     0.12 Bohr mag/cell
     absolute magnetization    =     0.14 Bohr mag/cell

     iteration # 30     ecut=    60.00 Ry     beta= 0.70
     Davidson diagonalization with overlap
     ethr =  3.20E-10,  avg # of iterations =  3.0

     total cpu time spent up to now is      101.8 secs

     total energy              =    -339.58856290 Ry
     estimated scf accuracy    <       0.00000010 Ry

     total magnetization       =     0.13 Bohr mag/cell
     absolute magnetization    =     0.15 Bohr mag/cell

     iteration # 31     ecut=    60.00 Ry     beta= 0.70
     Davidson diagonalization with overlap
     ethr =  3.20E-10,  avg # of iterations =  1.0

     total cpu time spent up to now is      102.9 secs

     total energy              =    -339.58856274 Ry
     estimated scf accuracy    <       0.00000014 Ry

     total magnetization       =     0.13 Bohr mag/cell
     absolute magnetization    =     0.15 Bohr mag/cell

     iteration # 32     ecut=    60.00 Ry     beta= 0.70
     Davidson diagonalization with overlap
     ethr =  3.20E-10,  avg # of iterations =  2.0

     total cpu time spent up to now is      104.2 secs

     total energy              =    -339.58856287 Ry
     estimated scf accuracy    <       0.00000001 Ry

     total magnetization       =     0.13 Bohr mag/cell
     absolute magnetization    =     0.15 Bohr mag/cell

     iteration # 33     ecut=    60.00 Ry     beta= 0.70
     Davidson diagonalization with overlap
     ethr =  5.99E-11,  avg # of iterations =  2.0

     total cpu time spent up to now is      105.5 secs

     total energy              =    -339.58856288 Ry
     estimated scf accuracy    <          1.1E-09 Ry

     total magnetization       =     0.14 Bohr mag/cell
     absolute magnetization    =     0.15 Bohr mag/cell

     iteration # 34     ecut=    60.00 Ry     beta= 0.70
     Davidson diagonalization with overlap
     ethr =  5.86E-12,  avg # of iterations =  2.0

     Magnetic moment per site  (integrated on atomic sphere of radius R)
     atom   1 (R=0.404)  charge= 16.5655  magn=  0.1434

     total cpu time spent up to now is      107.0 secs

     End of self-consistent calculation

     Number of k-points >= 100: set verbosity='high' to print the bands.

     the Fermi energy is    17.9469 ev

!    total energy              =    -339.58856289 Ry
     estimated scf accuracy    <          4.5E-11 Ry
     smearing contrib. (-TS)   =       0.00055901 Ry
     internal energy E=F+TS    =    -339.58912190 Ry

     The total energy is F=E-TS. E is the sum of the following terms:
     one-electron contribution =    -185.23677110 Ry
     hartree contribution      =     104.23465897 Ry
     xc contribution           =     -34.33328721 Ry
     ewald contribution        =    -224.25372256 Ry

     total magnetization       =     0.14 Bohr mag/cell
     absolute magnetization    =     0.15 Bohr mag/cell

     convergence has been achieved in  34 iterations

     Forces acting on atoms (cartesian axes, Ry/au):

     atom    1 type  1   force =     0.00000000    0.00000000    0.00000000

     Total force =     0.000000     Total SCF correction =     0.000006


     Computing stress (Cartesian axis) and pressure

          total   stress  (Ry/bohr**3)                   (kbar)     P=        4.93
   0.00003347   0.00000004  -0.00000008            4.92        0.01       -0.01
   0.00000004   0.00003353  -0.00000005            0.01        4.93       -0.01
  -0.00000008  -0.00000005   0.00003364           -0.01       -0.01        4.95

     Energy error            =      8.3E-05 Ry
     Gradient error          =      0.0E+00 Ry/Bohr
     Cell gradient error     =      4.9E+00 kbar

     number of scf cycles    =   3
     number of bfgs steps    =   2

     enthalpy           old  =    -339.5884797286 Ry
     enthalpy           new  =    -339.5885628891 Ry

     CASE: enthalpy          _new < enthalpy          _old

     new trust radius        =       0.0014497099 bohr
     new conv_thr            =       0.0000000010 Ry

     new unit-cell volume =     72.86526 a.u.^3 (    10.79752 Ang^3 )
     density =      9.02640 g/cm^3

CELL_PARAMETERS (bohr)
   4.557379523  -0.000018177  -0.000047421
  -1.519127099   4.296732505   0.000029981
  -1.519140113  -2.148309790   3.721077027

ATOMIC_POSITIONS (crystal)
Ni            0.0000000000        0.0000000000        0.0000000000



     Writing config-only to output data dir ./out/pwscf.save/
     NEW-OLD atomic charge density approx. for the potential
     extrapolated charge   18.04573, renormalised to   18.00000
     Generating pointlists ...

     total cpu time spent up to now is      107.5 secs

     Self-consistent Calculation

     iteration #  1     ecut=    60.00 Ry     beta= 0.70
     Davidson diagonalization with overlap
     ethr =  1.00E-06,  avg # of iterations =  3.2

     total cpu time spent up to now is      109.3 secs

     total energy              =    -339.57999495 Ry
     estimated scf accuracy    <       0.00999888 Ry

     total magnetization       =     0.13 Bohr mag/cell
     absolute magnetization    =     0.15 Bohr mag/cell

     iteration #  2     ecut=    60.00 Ry     beta= 0.70
     Davidson diagonalization with overlap
     ethr =  5.55E-05,  avg # of iterations =  2.6

     total cpu time spent up to now is      110.9 secs

     total energy              =    -339.58663123 Ry
     estimated scf accuracy    <       0.04874579 Ry

     total magnetization       =     0.14 Bohr mag/cell
     absolute magnetization    =     0.16 Bohr mag/cell

     iteration #  3     ecut=    60.00 Ry     beta= 0.70
     Davidson diagonalization with overlap
     ethr =  5.55E-05,  avg # of iterations =  2.0

     total cpu time spent up to now is      112.2 secs

     total energy              =    -339.58942732 Ry
     estimated scf accuracy    <       0.01133926 Ry

     total magnetization       =     0.14 Bohr mag/cell
     absolute magnetization    =     0.20 Bohr mag/cell

     iteration #  4     ecut=    60.00 Ry     beta= 0.70
     Davidson diagonalization with overlap
     ethr =  5.55E-05,  avg # of iterations =  1.0

     total cpu time spent up to now is      113.2 secs

     total energy              =    -339.58880811 Ry
     estimated scf accuracy    <       0.00617287 Ry

     total magnetization       =     0.14 Bohr mag/cell
     absolute magnetization    =     0.16 Bohr mag/cell

     iteration #  5     ecut=    60.00 Ry     beta= 0.70
     Davidson diagonalization with overlap
     ethr =  3.43E-05,  avg # of iterations =  1.0

     total cpu time spent up to now is      114.3 secs

     total energy              =    -339.58884795 Ry
     estimated scf accuracy    <       0.00236126 Ry

     total magnetization       =     0.14 Bohr mag/cell
     absolute magnetization    =     0.16 Bohr mag/cell

     iteration #  6     ecut=    60.00 Ry     beta= 0.70
     Davidson diagonalization with overlap
     ethr =  1.31E-05,  avg # of iterations =  1.0

     total cpu time spent up to now is      115.4 secs

     total energy              =    -339.58884445 Ry
     estimated scf accuracy    <       0.00181488 Ry

     total magnetization       =     0.14 Bohr mag/cell
     absolute magnetization    =     0.16 Bohr mag/cell

     iteration #  7     ecut=    60.00 Ry     beta= 0.70
     Davidson diagonalization with overlap
     ethr =  1.01E-05,  avg # of iterations =  1.0

     total cpu time spent up to now is      116.5 secs

     total energy              =    -339.58869348 Ry
     estimated scf accuracy    <       0.00173549 Ry

     total magnetization       =     0.14 Bohr mag/cell
     absolute magnetization    =     0.16 Bohr mag/cell

     iteration #  8     ecut=    60.00 Ry     beta= 0.70
     Davidson diagonalization with overlap
     ethr =  9.64E-06,  avg # of iterations =  1.0

     total cpu time spent up to now is      117.6 secs

     total energy              =    -339.58869186 Ry
     estimated scf accuracy    <       0.00089828 Ry

     total magnetization       =     0.14 Bohr mag/cell
     absolute magnetization    =     0.16 Bohr mag/cell

     iteration #  9     ecut=    60.00 Ry     beta= 0.70
     Davidson diagonalization with overlap
     ethr =  4.99E-06,  avg # of iterations =  1.0

     total cpu time spent up to now is      118.7 secs

     total energy              =    -339.58868851 Ry
     estimated scf accuracy    <       0.00076911 Ry

     total magnetization       =     0.14 Bohr mag/cell
     absolute magnetization    =     0.16 Bohr mag/cell

     iteration # 10     ecut=    60.00 Ry     beta= 0.70
     Davidson diagonalization with overlap
     ethr =  4.27E-06,  avg # of iterations =  1.0

     total cpu time spent up to now is      119.7 secs

     total energy              =    -339.58847727 Ry
     estimated scf accuracy    <       0.00074006 Ry

     total magnetization       =     0.14 Bohr mag/cell
     absolute magnetization    =     0.16 Bohr mag/cell

     iteration # 11     ecut=    60.00 Ry     beta= 0.70
     Davidson diagonalization with overlap
     ethr =  4.11E-06,  avg # of iterations =  1.1

     total cpu time spent up to now is      120.8 secs

     total energy              =    -339.58856389 Ry
     estimated scf accuracy    <       0.00000754 Ry

     total magnetization       =     0.14 Bohr mag/cell
     absolute magnetization    =     0.16 Bohr mag/cell

     iteration # 12     ecut=    60.00 Ry     beta= 0.70
     Davidson diagonalization with overlap
     ethr =  4.19E-08,  avg # of iterations =  2.1

     total cpu time spent up to now is      122.2 secs

     total energy              =    -339.58856658 Ry
     estimated scf accuracy    <       0.00000306 Ry

     total magnetization       =     0.14 Bohr mag/cell
     absolute magnetization    =     0.16 Bohr mag/cell

     iteration # 13     ecut=    60.00 Ry     beta= 0.70
     Davidson diagonalization with overlap
     ethr =  1.70E-08,  avg # of iterations =  1.8

     total cpu time spent up to now is      123.5 secs

     total energy              =    -339.58856596 Ry
     estimated scf accuracy    <       0.00001851 Ry

     total magnetization       =     0.14 Bohr mag/cell
     absolute magnetization    =     0.16 Bohr mag/cell

     iteration # 14     ecut=    60.00 Ry     beta= 0.70
     Davidson diagonalization with overlap
     ethr =  1.70E-08,  avg # of iterations =  1.9

     total cpu time spent up to now is      124.7 secs

     total energy              =    -339.58856581 Ry
     estimated scf accuracy    <       0.00000266 Ry

     total magnetization       =     0.14 Bohr mag/cell
     absolute magnetization    =     0.16 Bohr mag/cell

     iteration # 15     ecut=    60.00 Ry     beta= 0.70
     Davidson diagonalization with overlap
     ethr =  1.48E-08,  avg # of iterations =  1.0

     total cpu time spent up to now is      125.8 secs

     total energy              =    -339.58856594 Ry
     estimated scf accuracy    <       0.00000053 Ry

     total magnetization       =     0.14 Bohr mag/cell
     absolute magnetization    =     0.16 Bohr mag/cell

     iteration # 16     ecut=    60.00 Ry     beta= 0.70
     Davidson diagonalization with overlap
     ethr =  2.94E-09,  avg # of iterations =  1.5

     total cpu time spent up to now is      127.1 secs

     total energy              =    -339.58856598 Ry
     estimated scf accuracy    <       0.00000156 Ry

     total magnetization       =     0.14 Bohr mag/cell
     absolute magnetization    =     0.16 Bohr mag/cell

     iteration # 17     ecut=    60.00 Ry     beta= 0.70
     Davidson diagonalization with overlap
     ethr =  2.94E-09,  avg # of iterations =  1.0

     total cpu time spent up to now is      128.2 secs

     total energy              =    -339.58856589 Ry
     estimated scf accuracy    <       0.00000185 Ry

     total magnetization       =     0.14 Bohr mag/cell
     absolute magnetization    =     0.16 Bohr mag/cell

     iteration # 18     ecut=    60.00 Ry     beta= 0.70
     Davidson diagonalization with overlap
     ethr =  2.94E-09,  avg # of iterations =  1.9

     total cpu time spent up to now is      129.5 secs

     total energy              =    -339.58856596 Ry
     estimated scf accuracy    <       0.00000027 Ry

     total magnetization       =     0.14 Bohr mag/cell
     absolute magnetization    =     0.16 Bohr mag/cell

     iteration # 19     ecut=    60.00 Ry     beta= 0.70
     Davidson diagonalization with overlap
     ethr =  1.50E-09,  avg # of iterations =  2.0

     total cpu time spent up to now is      130.7 secs

     total energy              =    -339.58856591 Ry
     estimated scf accuracy    <       0.00000238 Ry

     total magnetization       =     0.14 Bohr mag/cell
     absolute magnetization    =     0.16 Bohr mag/cell

     iteration # 20     ecut=    60.00 Ry     beta= 0.70
     Davidson diagonalization with overlap
     ethr =  1.50E-09,  avg # of iterations =  2.0

     total cpu time spent up to now is      132.1 secs

     total energy              =    -339.58856594 Ry
     estimated scf accuracy    <       0.00000016 Ry

     total magnetization       =     0.14 Bohr mag/cell
     absolute magnetization    =     0.16 Bohr mag/cell

     iteration # 21     ecut=    60.00 Ry     beta= 0.70
     Davidson diagonalization with overlap
     ethr =  8.67E-10,  avg # of iterations =  1.2

     total cpu time spent up to now is      133.2 secs

     total energy              =    -339.58856595 Ry
     estimated scf accuracy    <       0.00000006 Ry

     total magnetization       =     0.14 Bohr mag/cell
     absolute magnetization    =     0.16 Bohr mag/cell

     iteration # 22     ecut=    60.00 Ry     beta= 0.70
     Davidson diagonalization with overlap
     ethr =  3.47E-10,  avg # of iterations =  1.6

     total cpu time spent up to now is      134.5 secs

     total energy              =    -339.58856595 Ry
     estimated scf accuracy    <       0.00000018 Ry

     total magnetization       =     0.14 Bohr mag/cell
     absolute magnetization    =     0.16 Bohr mag/cell

     iteration # 23     ecut=    60.00 Ry     beta= 0.70
     Davidson diagonalization with overlap
     ethr =  3.47E-10,  avg # of iterations =  1.5

     total cpu time spent up to now is      135.7 secs

     total energy              =    -339.58856596 Ry
     estimated scf accuracy    <       0.00000035 Ry

     total magnetization       =     0.14 Bohr mag/cell
     absolute magnetization    =     0.16 Bohr mag/cell

     iteration # 24     ecut=    60.00 Ry     beta= 0.70
     Davidson diagonalization with overlap
     ethr =  3.47E-10,  avg # of iterations =  1.0

     total cpu time spent up to now is      136.8 secs

     total energy              =    -339.58856567 Ry
     estimated scf accuracy    <       0.00000039 Ry

     total magnetization       =     0.14 Bohr mag/cell
     absolute magnetization    =     0.16 Bohr mag/cell

     iteration # 25     ecut=    60.00 Ry     beta= 0.70
     Davidson diagonalization with overlap
     ethr =  3.47E-10,  avg # of iterations =  2.0

     total cpu time spent up to now is      138.2 secs

     total energy              =    -339.58856526 Ry
     estimated scf accuracy    <       0.00000005 Ry

     total magnetization       =     0.14 Bohr mag/cell
     absolute magnetization    =     0.16 Bohr mag/cell

     iteration # 26     ecut=    60.00 Ry     beta= 0.70
     Davidson diagonalization with overlap
     ethr =  2.62E-10,  avg # of iterations =  2.5

     total cpu time spent up to now is      139.7 secs

     total energy              =    -339.58856575 Ry
     estimated scf accuracy    <       0.00000018 Ry

     total magnetization       =     0.13 Bohr mag/cell
     absolute magnetization    =     0.15 Bohr mag/cell

     iteration # 27     ecut=    60.00 Ry     beta= 0.70
     Davidson diagonalization with overlap
     ethr =  2.62E-10,  avg # of iterations =  2.0

     total cpu time spent up to now is      141.1 secs

     total energy              =    -339.58856559 Ry
     estimated scf accuracy    <       0.00000317 Ry

     total magnetization       =     0.13 Bohr mag/cell
     absolute magnetization    =     0.15 Bohr mag/cell

     iteration # 28     ecut=    60.00 Ry     beta= 0.70
     Davidson diagonalization with overlap
     ethr =  2.62E-10,  avg # of iterations =  2.0

     total cpu time spent up to now is      142.4 secs

     total energy              =    -339.58856571 Ry
     estimated scf accuracy    <       0.00000015 Ry

     total magnetization       =     0.13 Bohr mag/cell
     absolute magnetization    =     0.15 Bohr mag/cell

     iteration # 29     ecut=    60.00 Ry     beta= 0.70
     Davidson diagonalization with overlap
     ethr =  2.62E-10,  avg # of iterations =  2.0

     total cpu time spent up to now is      143.7 secs

     total energy              =    -339.58856574 Ry
     estimated scf accuracy    <       0.00000044 Ry

     total magnetization       =     0.13 Bohr mag/cell
     absolute magnetization    =     0.15 Bohr mag/cell

     iteration # 30     ecut=    60.00 Ry     beta= 0.70
     Davidson diagonalization with overlap
     ethr =  2.62E-10,  avg # of iterations =  1.0

     total cpu time spent up to now is      144.8 secs

     total energy              =    -339.58856559 Ry
     estimated scf accuracy    <       0.00000057 Ry

     total magnetization       =     0.13 Bohr mag/cell
     absolute magnetization    =     0.15 Bohr mag/cell

     iteration # 31     ecut=    60.00 Ry     beta= 0.70
     Davidson diagonalization with overlap
     ethr =  2.62E-10,  avg # of iterations =  2.0

     total cpu time spent up to now is      146.2 secs

     total energy              =    -339.58856571 Ry
     estimated scf accuracy    <       0.00000025 Ry

     total magnetization       =     0.13 Bohr mag/cell
     absolute magnetization    =     0.15 Bohr mag/cell

     iteration # 32     ecut=    60.00 Ry     beta= 0.70
     Davidson diagonalization with overlap
     ethr =  2.62E-10,  avg # of iterations =  1.5

     total cpu time spent up to now is      147.4 secs

     total energy              =    -339.58856569 Ry
     estimated scf accuracy    <       0.00000021 Ry

     total magnetization       =     0.13 Bohr mag/cell
     absolute magnetization    =     0.15 Bohr mag/cell

     iteration # 33     ecut=    60.00 Ry     beta= 0.70
     Davidson diagonalization with overlap
     ethr =  2.62E-10,  avg # of iterations =  1.3

     total cpu time spent up to now is      148.6 secs

     total energy              =    -339.58856562 Ry
     estimated scf accuracy    <       0.00000011 Ry

     total magnetization       =     0.13 Bohr mag/cell
     absolute magnetization    =     0.15 Bohr mag/cell

     iteration # 34     ecut=    60.00 Ry     beta= 0.70
     Davidson diagonalization with overlap
     ethr =  2.62E-10,  avg # of iterations =  2.0

     total cpu time spent up to now is      149.9 secs

     total energy              =    -339.58856567 Ry
     estimated scf accuracy    <       0.00000002 Ry

     total magnetization       =     0.13 Bohr mag/cell
     absolute magnetization    =     0.14 Bohr mag/cell

     iteration # 35     ecut=    60.00 Ry     beta= 0.70
     Davidson diagonalization with overlap
     ethr =  9.60E-11,  avg # of iterations =  2.0

     total cpu time spent up to now is      151.2 secs

     total energy              =    -339.58856570 Ry
     estimated scf accuracy    <       0.00000005 Ry

     total magnetization       =     0.13 Bohr mag/cell
     absolute magnetization    =     0.14 Bohr mag/cell

     iteration # 36     ecut=    60.00 Ry     beta= 0.70
     Davidson diagonalization with overlap
     ethr =  9.60E-11,  avg # of iterations =  2.0

     total cpu time spent up to now is      152.5 secs

     total energy              =    -339.58856569 Ry
     estimated scf accuracy    <          1.2E-09 Ry

     total magnetization       =     0.13 Bohr mag/cell
     absolute magnetization    =     0.14 Bohr mag/cell

     iteration # 37     ecut=    60.00 Ry     beta= 0.70
     Davidson diagonalization with overlap
     ethr =  6.93E-12,  avg # of iterations =  2.0

     Magnetic moment per site  (integrated on atomic sphere of radius R)
     atom   1 (R=0.404)  charge= 16.5630  magn=  0.1341

     total cpu time spent up to now is      153.8 secs

     End of self-consistent calculation

     Number of k-points >= 100: set verbosity='high' to print the bands.

     the Fermi energy is    17.8888 ev

!    total energy              =    -339.58856570 Ry
     estimated scf accuracy    <          9.6E-10 Ry
     smearing contrib. (-TS)   =       0.00056239 Ry
     internal energy E=F+TS    =    -339.58912809 Ry

     The total energy is F=E-TS. E is the sum of the following terms:
     one-electron contribution =    -185.54901607 Ry
     hartree contribution      =     104.35512393 Ry
     xc contribution           =     -34.33158270 Ry
     ewald contribution        =    -224.06365324 Ry

     total magnetization       =     0.13 Bohr mag/cell
     absolute magnetization    =     0.14 Bohr mag/cell

     convergence has been achieved in  37 iterations

     Forces acting on atoms (cartesian axes, Ry/au):

     atom    1 type  1   force =     0.00000000    0.00000000    0.00000000

     Total force =     0.000000     Total SCF correction =     0.000030


     Computing stress (Cartesian axis) and pressure

          total   stress  (Ry/bohr**3)                   (kbar)     P=       -0.31
  -0.00000213   0.00000002  -0.00000005           -0.31        0.00       -0.01
   0.00000002  -0.00000208  -0.00000002            0.00       -0.31       -0.00
  -0.00000005  -0.00000002  -0.00000202           -0.01       -0.00       -0.30

     Energy error            =      2.8E-06 Ry
     Gradient error          =      0.0E+00 Ry/Bohr
     Cell gradient error     =      3.1E-01 kbar

     bfgs converged in   4 scf cycles and   3 bfgs steps
     (criteria: energy <  1.0E-05 Ry, force <  1.0E-04 Ry/Bohr, cell <  5.0E-01 kbar)

     End of BFGS Geometry Optimization

     Final enthalpy           =    -339.5885657004 Ry

     File ./out/pwscf.bfgs deleted, as requested
Begin final coordinates
     new unit-cell volume =     72.86526 a.u.^3 (    10.79752 Ang^3 )
     density =      9.02640 g/cm^3

CELL_PARAMETERS (bohr)
   4.557379523  -0.000018177  -0.000047421
  -1.519127099   4.296732505   0.000029981
  -1.519140113  -2.148309790   3.721077027

ATOMIC_POSITIONS (crystal)
Ni            0.0000000000        0.0000000000        0.0000000000
End final coordinates



     Writing config-only to output data dir ./out/pwscf.save/

     Final scf calculation at the relaxed structure.
     The G-vectors are recalculated for the final unit cell
     Results may differ from those at the preceding step.

     Parallelization info
     --------------------
     sticks:   dense  smooth     PW     G-vecs:    dense   smooth      PW
     Min          61      31     11                 1072      381      88
     Max          62      32     12                 1076      383      90
     Sum         739     375    139                12887     4585    1061

     Using Slab Decomposition



     bravais-lattice index     =            0
     lattice parameter (alat)  =       4.6716  a.u.
     unit-cell volume          =      72.8653 (a.u.)^3
     number of atoms/cell      =            1
     number of atomic types    =            1
     number of electrons       =        18.00
     number of Kohn-Sham states=           13
     kinetic-energy cutoff     =      60.0000  Ry
     charge density cutoff     =     480.0000  Ry
     scf convergence threshold =      1.0E-09
     mixing beta               =       0.7000
     number of iterations used =            8  TF        mixing
     press convergence thresh. =      5.0E-01
     Exchange-correlation= PBE
                           (   1   4   3   4   0   0   0)

     celldm(1)=   4.671592  celldm(2)=   0.000000  celldm(3)=   0.000000
     celldm(4)=   0.000000  celldm(5)=   0.000000  celldm(6)=   0.000000

     crystal axes: (cart. coord. in units of alat)
               a(1) = (   0.975552  -0.000004  -0.000010 )  
               a(2) = (  -0.325184   0.919758   0.000006 )  
               a(3) = (  -0.325187  -0.459867   0.796533 )  

     reciprocal axes: (cart. coord. in units 2 pi/alat)
               b(1) = (  1.025069  0.362413  0.627721 )  
               b(2) = (  0.000011  1.087242  0.627708 )  
               b(3) = (  0.000013 -0.000004  1.255444 )  


     PseudoPot. # 1 for Ni read from file:
     /home/jmgoff/work/automation/qe_pseudos/Ni.upf
     MD5 check sum: caf20d35bef94d268ef04de15446df97
     Pseudo is Ultrasoft + core correction, Zval = 18.0
     Generated using 'atomic' code by A. Dal Corso  v.7.1
     Using radial grid of 1195 points,  6 beta functions with: 
                l(1) =   0
                l(2) =   0
                l(3) =   1
                l(4) =   1
                l(5) =   2
                l(6) =   2
     Q(r) pseudized with 0 coefficients 


     atomic species   valence    mass     pseudopotential
        Ni            18.00    58.69340     Ni( 1.00)

     Starting magnetic structure 
     atomic species   magnetization
        Ni           0.008

     No symmetry found



   Cartesian axes

     site n.     atom                  positions (alat units)
         1           Ni  tau(   1) = (   0.0000000   0.0000000   0.0000000  )

     number of k points=   365  Marzari-Vanderbilt smearing, width (Ry)=  0.0100

     Number of k-points >= 100: set verbosity='high' to print them.

     Dense  grid:    12887 G-vectors     FFT dimensions: (  32,  32,  32)

     Smooth grid:     4585 G-vectors     FFT dimensions: (  24,  24,  24)

     Estimated max dynamical RAM per process >       9.72 MB

     Estimated total dynamical RAM >     226.95 MB

     Check: negative core charge=   -0.000001
     Generating pointlists ...

     Initial potential from superposition of free atoms

     starting charge      17.9998, renormalised to      18.0000
     Starting wfcs are   10 randomized atomic wfcs +    3 random wfcs

     total cpu time spent up to now is      154.7 secs

     Self-consistent Calculation

     iteration #  1     ecut=    60.00 Ry     beta= 0.70
     Davidson diagonalization with overlap
     ethr =  1.00E-06,  avg # of iterations =  9.9

     total cpu time spent up to now is      158.4 secs

     total energy              =    -339.58649012 Ry
     estimated scf accuracy    <       0.00496246 Ry

     total magnetization       =     0.12 Bohr mag/cell
     absolute magnetization    =     0.12 Bohr mag/cell

     iteration #  2     ecut=    60.00 Ry     beta= 0.70
     Davidson diagonalization with overlap
     ethr =  2.76E-05,  avg # of iterations =  2.0

     total cpu time spent up to now is      159.7 secs

     total energy              =    -339.58715947 Ry
     estimated scf accuracy    <       0.00340316 Ry

     total magnetization       =     0.10 Bohr mag/cell
     absolute magnetization    =     0.11 Bohr mag/cell

     iteration #  3     ecut=    60.00 Ry     beta= 0.70
     Davidson diagonalization with overlap
     ethr =  1.89E-05,  avg # of iterations =  1.8

     total cpu time spent up to now is      160.9 secs

     total energy              =    -339.58774898 Ry
     estimated scf accuracy    <       0.00013379 Ry

     total magnetization       =     0.10 Bohr mag/cell
     absolute magnetization    =     0.11 Bohr mag/cell

     iteration #  4     ecut=    60.00 Ry     beta= 0.70
     Davidson diagonalization with overlap
     ethr =  7.43E-07,  avg # of iterations =  2.0

     total cpu time spent up to now is      162.2 secs

     total energy              =    -339.58770819 Ry
     estimated scf accuracy    <       0.00326263 Ry

     total magnetization       =     0.10 Bohr mag/cell
     absolute magnetization    =     0.15 Bohr mag/cell

     iteration #  5     ecut=    60.00 Ry     beta= 0.70
     Davidson diagonalization with overlap
     ethr =  7.43E-07,  avg # of iterations =  2.0

     total cpu time spent up to now is      163.5 secs

     total energy              =    -339.58775940 Ry
     estimated scf accuracy    <       0.00001501 Ry

     total magnetization       =     0.10 Bohr mag/cell
     absolute magnetization    =     0.11 Bohr mag/cell

     iteration #  6     ecut=    60.00 Ry     beta= 0.70
     Davidson diagonalization with overlap
     ethr =  8.34E-08,  avg # of iterations =  2.0

     total cpu time spent up to now is      164.7 secs

     total energy              =    -339.58775855 Ry
     estimated scf accuracy    <       0.00004735 Ry

     total magnetization       =     0.10 Bohr mag/cell
     absolute magnetization    =     0.11 Bohr mag/cell

     iteration #  7     ecut=    60.00 Ry     beta= 0.70
     Davidson diagonalization with overlap
     ethr =  8.34E-08,  avg # of iterations =  2.0

     total cpu time spent up to now is      166.0 secs

     total energy              =    -339.58776045 Ry
     estimated scf accuracy    <       0.00000368 Ry

     total magnetization       =     0.10 Bohr mag/cell
     absolute magnetization    =     0.11 Bohr mag/cell

     iteration #  8     ecut=    60.00 Ry     beta= 0.70
     Davidson diagonalization with overlap
     ethr =  2.05E-08,  avg # of iterations =  2.0

     total cpu time spent up to now is      167.3 secs

     total energy              =    -339.58775863 Ry
     estimated scf accuracy    <       0.00010363 Ry

     total magnetization       =     0.10 Bohr mag/cell
     absolute magnetization    =     0.11 Bohr mag/cell

     iteration #  9     ecut=    60.00 Ry     beta= 0.70
     Davidson diagonalization with overlap
     ethr =  2.05E-08,  avg # of iterations =  2.0

     total cpu time spent up to now is      168.6 secs

     total energy              =    -339.58776042 Ry
     estimated scf accuracy    <       0.00000037 Ry

     total magnetization       =     0.10 Bohr mag/cell
     absolute magnetization    =     0.11 Bohr mag/cell

     iteration # 10     ecut=    60.00 Ry     beta= 0.70
     Davidson diagonalization with overlap
     ethr =  2.07E-09,  avg # of iterations =  1.0

     total cpu time spent up to now is      169.6 secs

     total energy              =    -339.58776045 Ry
     estimated scf accuracy    <       0.00000015 Ry

     total magnetization       =     0.10 Bohr mag/cell
     absolute magnetization    =     0.11 Bohr mag/cell

     iteration # 11     ecut=    60.00 Ry     beta= 0.70
     Davidson diagonalization with overlap
     ethr =  8.44E-10,  avg # of iterations =  1.8

     total cpu time spent up to now is      170.8 secs

     total energy              =    -339.58776046 Ry
     estimated scf accuracy    <       0.00000023 Ry

     total magnetization       =     0.10 Bohr mag/cell
     absolute magnetization    =     0.11 Bohr mag/cell

     iteration # 12     ecut=    60.00 Ry     beta= 0.70
     Davidson diagonalization with overlap
     ethr =  8.44E-10,  avg # of iterations =  1.0

     total cpu time spent up to now is      171.9 secs

     total energy              =    -339.58776045 Ry
     estimated scf accuracy    <       0.00000011 Ry

     total magnetization       =     0.10 Bohr mag/cell
     absolute magnetization    =     0.11 Bohr mag/cell

     iteration # 13     ecut=    60.00 Ry     beta= 0.70
     Davidson diagonalization with overlap
     ethr =  6.09E-10,  avg # of iterations =  2.0

     total cpu time spent up to now is      173.2 secs

     total energy              =    -339.58776044 Ry
     estimated scf accuracy    <       0.00000139 Ry

     total magnetization       =     0.09 Bohr mag/cell
     absolute magnetization    =     0.11 Bohr mag/cell

     iteration # 14     ecut=    60.00 Ry     beta= 0.70
     Davidson diagonalization with overlap
     ethr =  6.09E-10,  avg # of iterations =  1.1

     total cpu time spent up to now is      174.2 secs

     total energy              =    -339.58776051 Ry
     estimated scf accuracy    <       0.00000080 Ry

     total magnetization       =     0.10 Bohr mag/cell
     absolute magnetization    =     0.11 Bohr mag/cell

     iteration # 15     ecut=    60.00 Ry     beta= 0.70
     Davidson diagonalization with overlap
     ethr =  6.09E-10,  avg # of iterations =  2.0

     total cpu time spent up to now is      175.5 secs

     total energy              =    -339.58776046 Ry
     estimated scf accuracy    <       0.00000022 Ry

     total magnetization       =     0.09 Bohr mag/cell
     absolute magnetization    =     0.11 Bohr mag/cell

     iteration # 16     ecut=    60.00 Ry     beta= 0.70
     Davidson diagonalization with overlap
     ethr =  6.09E-10,  avg # of iterations =  1.5

     total cpu time spent up to now is      176.7 secs

     total energy              =    -339.58775899 Ry
     estimated scf accuracy    <       0.00000010 Ry

     total magnetization       =     0.10 Bohr mag/cell
     absolute magnetization    =     0.11 Bohr mag/cell

     iteration # 17     ecut=    60.00 Ry     beta= 0.70
     Davidson diagonalization with overlap
     ethr =  5.59E-10,  avg # of iterations =  2.6

     total cpu time spent up to now is      178.2 secs

     total energy              =    -339.58775986 Ry
     estimated scf accuracy    <       0.00000009 Ry

     total magnetization       =     0.10 Bohr mag/cell
     absolute magnetization    =     0.12 Bohr mag/cell

     iteration # 18     ecut=    60.00 Ry     beta= 0.70
     Davidson diagonalization with overlap
     ethr =  5.03E-10,  avg # of iterations =  2.0

     total cpu time spent up to now is      179.6 secs

     total energy              =    -339.58775813 Ry
     estimated scf accuracy    <       0.00000015 Ry

     total magnetization       =     0.10 Bohr mag/cell
     absolute magnetization    =     0.12 Bohr mag/cell

     iteration # 19     ecut=    60.00 Ry     beta= 0.70
     Davidson diagonalization with overlap
     ethr =  5.03E-10,  avg # of iterations =  3.0

     total cpu time spent up to now is      181.2 secs

     total energy              =    -339.58775960 Ry
     estimated scf accuracy    <       0.00000098 Ry

     total magnetization       =     0.11 Bohr mag/cell
     absolute magnetization    =     0.13 Bohr mag/cell

     iteration # 20     ecut=    60.00 Ry     beta= 0.70
     Davidson diagonalization with overlap
     ethr =  5.03E-10,  avg # of iterations =  2.0

     total cpu time spent up to now is      182.5 secs

     total energy              =    -339.58775777 Ry
     estimated scf accuracy    <       0.00000007 Ry

     total magnetization       =     0.11 Bohr mag/cell
     absolute magnetization    =     0.13 Bohr mag/cell

     iteration # 21     ecut=    60.00 Ry     beta= 0.70
     Davidson diagonalization with overlap
     ethr =  3.75E-10,  avg # of iterations =  3.0

     total cpu time spent up to now is      184.1 secs

     total energy              =    -339.58775825 Ry
     estimated scf accuracy    <       0.00000014 Ry

     total magnetization       =     0.12 Bohr mag/cell
     absolute magnetization    =     0.14 Bohr mag/cell

     iteration # 22     ecut=    60.00 Ry     beta= 0.70
     Davidson diagonalization with overlap
     ethr =  3.75E-10,  avg # of iterations =  3.0

     total cpu time spent up to now is      185.7 secs

     total energy              =    -339.58775964 Ry
     estimated scf accuracy    <       0.00000032 Ry

     total magnetization       =     0.11 Bohr mag/cell
     absolute magnetization    =     0.13 Bohr mag/cell

     iteration # 23     ecut=    60.00 Ry     beta= 0.70
     Davidson diagonalization with overlap
     ethr =  3.75E-10,  avg # of iterations =  2.0

     total cpu time spent up to now is      187.0 secs

     total energy              =    -339.58775839 Ry
     estimated scf accuracy    <       0.00000071 Ry

     total magnetization       =     0.11 Bohr mag/cell
     absolute magnetization    =     0.13 Bohr mag/cell

     iteration # 24     ecut=    60.00 Ry     beta= 0.70
     Davidson diagonalization with overlap
     ethr =  3.75E-10,  avg # of iterations =  2.9

     total cpu time spent up to now is      188.6 secs

     total energy              =    -339.58775870 Ry
     estimated scf accuracy    <       0.00000032 Ry

     total magnetization       =     0.12 Bohr mag/cell
     absolute magnetization    =     0.14 Bohr mag/cell

     iteration # 25     ecut=    60.00 Ry     beta= 0.70
     Davidson diagonalization with overlap
     ethr =  3.75E-10,  avg # of iterations =  2.6

     total cpu time spent up to now is      190.1 secs

     total energy              =    -339.58775940 Ry
     estimated scf accuracy    <       0.00000032 Ry

     total magnetization       =     0.12 Bohr mag/cell
     absolute magnetization    =     0.14 Bohr mag/cell

     iteration # 26     ecut=    60.00 Ry     beta= 0.70
     Davidson diagonalization with overlap
     ethr =  3.75E-10,  avg # of iterations =  2.0

     total cpu time spent up to now is      191.4 secs

     total energy              =    -339.58775899 Ry
     estimated scf accuracy    <       0.00000055 Ry

     total magnetization       =     0.13 Bohr mag/cell
     absolute magnetization    =     0.14 Bohr mag/cell

     iteration # 27     ecut=    60.00 Ry     beta= 0.70
     Davidson diagonalization with overlap
     ethr =  3.75E-10,  avg # of iterations =  2.1

     total cpu time spent up to now is      192.8 secs

     total energy              =    -339.58775491 Ry
     estimated scf accuracy    <       0.00000113 Ry

     total magnetization       =     0.13 Bohr mag/cell
     absolute magnetization    =     0.15 Bohr mag/cell

     iteration # 28     ecut=    60.00 Ry     beta= 0.70
     Davidson diagonalization with overlap
     ethr =  3.75E-10,  avg # of iterations =  3.1

     total cpu time spent up to now is      194.5 secs

     total energy              =    -339.58775553 Ry
     estimated scf accuracy    <       0.00000537 Ry

     total magnetization       =     0.12 Bohr mag/cell
     absolute magnetization    =     0.13 Bohr mag/cell

     iteration # 29     ecut=    60.00 Ry     beta= 0.70
     Davidson diagonalization with overlap
     ethr =  3.75E-10,  avg # of iterations =  3.1

     total cpu time spent up to now is      196.2 secs

     total energy              =    -339.58775950 Ry
     estimated scf accuracy    <       0.00000002 Ry

     total magnetization       =     0.13 Bohr mag/cell
     absolute magnetization    =     0.15 Bohr mag/cell

     iteration # 30     ecut=    60.00 Ry     beta= 0.70
     Davidson diagonalization with overlap
     ethr =  1.13E-10,  avg # of iterations =  1.9

     total cpu time spent up to now is      197.5 secs

     total energy              =    -339.58775936 Ry
     estimated scf accuracy    <       0.00000002 Ry

     total magnetization       =     0.13 Bohr mag/cell
     absolute magnetization    =     0.15 Bohr mag/cell

     iteration # 31     ecut=    60.00 Ry     beta= 0.70
     Davidson diagonalization with overlap
     ethr =  9.31E-11,  avg # of iterations =  2.1

     total cpu time spent up to now is      198.9 secs

     total energy              =    -339.58775950 Ry
     estimated scf accuracy    <          7.6E-09 Ry

     total magnetization       =     0.13 Bohr mag/cell
     absolute magnetization    =     0.14 Bohr mag/cell

     iteration # 32     ecut=    60.00 Ry     beta= 0.70
     Davidson diagonalization with overlap
     ethr =  4.23E-11,  avg # of iterations =  1.0

     total cpu time spent up to now is      199.9 secs

     total energy              =    -339.58775950 Ry
     estimated scf accuracy    <          2.5E-09 Ry

     total magnetization       =     0.13 Bohr mag/cell
     absolute magnetization    =     0.14 Bohr mag/cell

     iteration # 33     ecut=    60.00 Ry     beta= 0.70
     Davidson diagonalization with overlap
     ethr =  1.41E-11,  avg # of iterations =  1.0

     total cpu time spent up to now is      201.0 secs

     total energy              =    -339.58775950 Ry
     estimated scf accuracy    <          3.1E-09 Ry

     total magnetization       =     0.13 Bohr mag/cell
     absolute magnetization    =     0.14 Bohr mag/cell

     iteration # 34     ecut=    60.00 Ry     beta= 0.70
     Davidson diagonalization with overlap
     ethr =  1.41E-11,  avg # of iterations =  1.1

     total cpu time spent up to now is      202.0 secs

     total energy              =    -339.58775950 Ry
     estimated scf accuracy    <          3.4E-09 Ry

     total magnetization       =     0.13 Bohr mag/cell
     absolute magnetization    =     0.14 Bohr mag/cell

     iteration # 35     ecut=    60.00 Ry     beta= 0.70
     Davidson diagonalization with overlap
     ethr =  1.41E-11,  avg # of iterations =  1.2

     Magnetic moment per site  (integrated on atomic sphere of radius R)
     atom   1 (R=0.404)  charge= 16.5631  magn=  0.1351

     total cpu time spent up to now is      203.1 secs

     End of self-consistent calculation

     Number of k-points >= 100: set verbosity='high' to print the bands.

     the Fermi energy is    17.8896 ev

!    total energy              =    -339.58775950 Ry
     estimated scf accuracy    <          1.1E-10 Ry
     smearing contrib. (-TS)   =       0.00056172 Ry
     internal energy E=F+TS    =    -339.58832122 Ry

     The total energy is F=E-TS. E is the sum of the following terms:
     one-electron contribution =    -185.54864229 Ry
     hartree contribution      =     104.35568425 Ry
     xc contribution           =     -34.33170993 Ry
     ewald contribution        =    -224.06365324 Ry

     total magnetization       =     0.13 Bohr mag/cell
     absolute magnetization    =     0.14 Bohr mag/cell

     convergence has been achieved in  35 iterations

     Forces acting on atoms (cartesian axes, Ry/au):

     atom    1 type  1   force =     0.00000000    0.00000000    0.00000000

     Total force =     0.000000     Total SCF correction =     0.000008


     Computing stress (Cartesian axis) and pressure

          total   stress  (Ry/bohr**3)                   (kbar)     P=      -12.31
  -0.00008375   0.00000003  -0.00000003          -12.32        0.00       -0.00
   0.00000003  -0.00008370  -0.00000006            0.00      -12.31       -0.01
  -0.00000003  -0.00000006  -0.00008362           -0.00       -0.01      -12.30


     Writing all to output data dir ./out/pwscf.save/

     init_run     :      0.85s CPU      1.05s WALL (       2 calls)
     electrons    :    162.27s CPU    200.17s WALL (       5 calls)
     update_pot   :      0.18s CPU      0.19s WALL (       3 calls)
     forces       :      0.45s CPU      0.59s WALL (       5 calls)
     stress       :      1.07s CPU      1.12s WALL (       5 calls)

     Called by init_run:
     wfcinit      :      0.63s CPU      0.79s WALL (       2 calls)
     potinit      :      0.04s CPU      0.04s WALL (       2 calls)
     hinit0       :      0.17s CPU      0.21s WALL (       2 calls)

     Called by electrons:
     c_bands      :    139.76s CPU    172.58s WALL (     153 calls)
     sum_band     :     21.12s CPU     26.02s WALL (     153 calls)
     v_of_rho     :      0.90s CPU      0.95s WALL (     158 calls)
     newd         :      0.35s CPU      0.37s WALL (     158 calls)
     mix_rho      :      0.09s CPU      0.15s WALL (     153 calls)

     Called by c_bands:
     init_us_2    :      1.54s CPU      1.92s WALL (  116070 calls)
     init_us_2:cp :      1.41s CPU      1.78s WALL (  116070 calls)
     cegterg      :    134.09s CPU    164.31s WALL (   55845 calls)

     Called by *egterg:
     cdiaghg      :     19.71s CPU     23.53s WALL (  155971 calls)
     h_psi        :     90.67s CPU    111.86s WALL (  157796 calls)
     s_psi        :      3.68s CPU      4.51s WALL (  157796 calls)
     g_psi        :      0.21s CPU      0.26s WALL (  101221 calls)

     Called by h_psi:
     h_psi:calbec :      5.43s CPU      6.69s WALL (  157796 calls)
     vloc_psi     :     81.69s CPU    100.83s WALL (  157796 calls)
     add_vuspsi   :      2.97s CPU      3.66s WALL (  157796 calls)

     General routines
     calbec       :      7.54s CPU      9.38s WALL (  222766 calls)
     fft          :      0.32s CPU      0.37s WALL (    4143 calls)
     ffts         :      0.02s CPU      0.02s WALL (     622 calls)
     fftw         :     92.97s CPU    114.85s WALL ( 4138957 calls)
     interpolate  :      0.03s CPU      0.04s WALL (     316 calls)

     Parallel routines

     PWSCF        :   2m45.39s CPU   3m24.40s WALL


   This run was terminated on:  15:36: 2  18Jun2023            

=------------------------------------------------------------------------------=
   JOB DONE.
=------------------------------------------------------------------------------=
Note: The following floating-point exceptions are signalling: IEEE_DENORMAL
Note: The following floating-point exceptions are signalling: IEEE_DENORMAL
Note: The following floating-point exceptions are signalling: IEEE_DENORMAL
Note: The following floating-point exceptions are signalling: IEEE_DENORMAL
Note: The following floating-point exceptions are signalling: IEEE_DENORMAL
