Ignoring PCI device with non-16bit domain.
Pass --enable-32bits-pci-domain to configure to support such devices
(warning: it would break the library ABI, don't enable unless really needed).

     Program PWSCF v.7.1 starts on 23Jun2023 at 16:29: 4 

     This program is part of the open-source Quantum ESPRESSO suite
     for quantum simulation of materials; please cite
         "P. Giannozzi et al., J. Phys.:Condens. Matter 21 395502 (2009);
         "P. Giannozzi et al., J. Phys.:Condens. Matter 29 465901 (2017);
         "P. Giannozzi et al., J. Chem. Phys. 152 154105 (2020);
          URL http://www.quantum-espresso.org", 
     in publications or presentations arising from this work. More details at
     http://www.quantum-espresso.org/quote

     Parallel version (MPI), running on    24 processors

     MPI processes distributed on     1 nodes
     12320 MiB available memory on the printing compute node when the environment starts

     Reading input from Ni_hexagonal_h_atoms.in

     Current dimensions of program PWSCF are:
     Max number of different atomic species (ntypx) = 10
     Max number of k-points (npk) =  40000
     Max angular momentum in pseudopotentials (lmaxx) =  4
     Found identity + (  0.0000  0.0000 -0.5000) symmetry
     This is a supercell, fractional translations are disabled

     R & G space division:  proc/nbgrp/npool/nimage =      24
     Subspace diagonalization in iterative solution of the eigenvalue problem:
     a serial algorithm will be used


     Parallelization info
     --------------------
     sticks:   dense  smooth     PW     G-vecs:    dense   smooth      PW
     Min          19      10      3                 1033      368      75
     Max          20      11      4                 1042      375      86
     Sum         475     241     85                24925     8875    1929

     Using Slab Decomposition



     bravais-lattice index     =            0
     lattice parameter (alat)  =       3.7795  a.u.
     unit-cell volume          =     140.2615 (a.u.)^3
     number of atoms/cell      =            2
     number of atomic types    =            1
     number of electrons       =        36.00
     number of Kohn-Sham states=           22
     kinetic-energy cutoff     =      60.0000  Ry
     charge density cutoff     =     480.0000  Ry
     scf convergence threshold =      1.0E-06
     mixing beta               =       0.7000
     number of iterations used =            8  TF        mixing
     energy convergence thresh.=      1.0E-05
     force convergence thresh. =      1.0E-04
     press convergence thresh. =      5.0E-01
     Exchange-correlation= PBE
                           (   1   4   3   4   0   0   0)
     nstep                     =           50


     celldm(1)=   3.779452  celldm(2)=   0.000000  celldm(3)=   0.000000
     celldm(4)=   0.000000  celldm(5)=   0.000000  celldm(6)=   0.000000

     crystal axes: (cart. coord. in units of alat)
               a(1) = (   1.000000   0.000000   0.000000 )  
               a(2) = (  -0.500000   0.866025   0.000000 )  
               a(3) = (   0.000000   0.000000   3.000000 )  

     reciprocal axes: (cart. coord. in units 2 pi/alat)
               b(1) = (  1.000000  0.577350 -0.000000 )  
               b(2) = (  0.000000  1.154701  0.000000 )  
               b(3) = (  0.000000 -0.000000  0.333333 )  


     PseudoPot. # 1 for Ni read from file:
     /home/jmgoff/work/automation/qe_pseudos/Ni.upf
     MD5 check sum: caf20d35bef94d268ef04de15446df97
     Pseudo is Ultrasoft + core correction, Zval = 18.0
     Generated using 'atomic' code by A. Dal Corso  v.7.1
     Using radial grid of 1195 points,  6 beta functions with: 
                l(1) =   0
                l(2) =   0
                l(3) =   1
                l(4) =   1
                l(5) =   2
                l(6) =   2
     Q(r) pseudized with 0 coefficients 


     atomic species   valence    mass     pseudopotential
        Ni            18.00    58.69340     Ni( 1.00)

     Starting magnetic structure 
     atomic species   magnetization
        Ni           1.000

     No symmetry found



   Cartesian axes

     site n.     atom                  positions (alat units)
         1           Ni  tau(   1) = (   0.0000000   0.0000000   0.0000000  )
         2           Ni  tau(   2) = (   0.0000000   0.0000000   1.5000000  )

     number of k points=   182  Marzari-Vanderbilt smearing, width (Ry)=  0.0100

     Number of k-points >= 100: set verbosity='high' to print them.

     Dense  grid:    24925 G-vectors     FFT dimensions: (  27,  27,  80)

     Smooth grid:     8875 G-vectors     FFT dimensions: (  20,  20,  60)

     Estimated max dynamical RAM per process >      13.32 MB

     Estimated total dynamical RAM >     319.60 MB

     Check: negative core charge=   -0.000001
     Generating pointlists ...
     new r_m :   0.4125 (alat units)  1.5590 (a.u.) for type    1

     Initial potential from superposition of free atoms

     starting charge      35.9995, renormalised to      36.0000
     Starting wfcs are   20 randomized atomic wfcs +    2 random wfcs

     total cpu time spent up to now is        1.1 secs

     Self-consistent Calculation

     iteration #  1     ecut=    60.00 Ry     beta= 0.70
     Davidson diagonalization with overlap
     ethr =  1.00E-02,  avg # of iterations =  5.6

     total cpu time spent up to now is        6.1 secs

     total energy              =    -673.49152500 Ry
     estimated scf accuracy    <      17.11065157 Ry

     total magnetization       =     8.00 Bohr mag/cell
     absolute magnetization    =     8.73 Bohr mag/cell

     iteration #  2     ecut=    60.00 Ry     beta= 0.70
     Davidson diagonalization with overlap
     ethr =  1.00E-02,  avg # of iterations =  2.8

     total cpu time spent up to now is        9.9 secs

     total energy              =    -677.51548128 Ry
     estimated scf accuracy    <       8.74455530 Ry

     total magnetization       =     1.87 Bohr mag/cell
     absolute magnetization    =     2.54 Bohr mag/cell

     iteration #  3     ecut=    60.00 Ry     beta= 0.70
     Davidson diagonalization with overlap
     ethr =  1.00E-02,  avg # of iterations =  2.0

     negative rho (up, down):  0.000E+00 2.452E-05

     total cpu time spent up to now is       13.2 secs

     total energy              =    -678.88713429 Ry
     estimated scf accuracy    <       1.39046091 Ry

     total magnetization       =     2.52 Bohr mag/cell
     absolute magnetization    =     3.37 Bohr mag/cell

     iteration #  4     ecut=    60.00 Ry     beta= 0.70
     Davidson diagonalization with overlap
     ethr =  3.86E-03,  avg # of iterations =  3.0

     total cpu time spent up to now is       17.3 secs

     total energy              =    -671.43143672 Ry
     estimated scf accuracy    <     462.56706311 Ry

     total magnetization       =     0.98 Bohr mag/cell
     absolute magnetization    =    43.47 Bohr mag/cell

     iteration #  5     ecut=    60.00 Ry     beta= 0.70
     Davidson diagonalization with overlap
     ethr =  3.86E-03,  avg # of iterations =  2.8

     total cpu time spent up to now is       21.2 secs

     total energy              =    -678.72132186 Ry
     estimated scf accuracy    <       0.87949555 Ry

     total magnetization       =     1.29 Bohr mag/cell
     absolute magnetization    =     2.30 Bohr mag/cell

     iteration #  6     ecut=    60.00 Ry     beta= 0.70
     Davidson diagonalization with overlap
     ethr =  2.44E-03,  avg # of iterations =  2.1

     total cpu time spent up to now is       24.7 secs

     total energy              =    -679.20094437 Ry
     estimated scf accuracy    <      29.69464819 Ry

     total magnetization       =     0.90 Bohr mag/cell
     absolute magnetization    =    10.34 Bohr mag/cell

     iteration #  7     ecut=    60.00 Ry     beta= 0.70
     Davidson diagonalization with overlap
     ethr =  2.44E-03,  avg # of iterations =  1.0

     total cpu time spent up to now is       27.3 secs

     total energy              =    -678.26696925 Ry
     estimated scf accuracy    <      31.03737667 Ry

     total magnetization       =     0.88 Bohr mag/cell
     absolute magnetization    =    10.78 Bohr mag/cell

     iteration #  8     ecut=    60.00 Ry     beta= 0.70
     Davidson diagonalization with overlap
     ethr =  2.44E-03,  avg # of iterations =  2.0

     total cpu time spent up to now is       30.7 secs

     total energy              =    -678.98729522 Ry
     estimated scf accuracy    <      13.68594743 Ry

     total magnetization       =     0.91 Bohr mag/cell
     absolute magnetization    =     6.55 Bohr mag/cell

     iteration #  9     ecut=    60.00 Ry     beta= 0.70
     Davidson diagonalization with overlap
     ethr =  2.44E-03,  avg # of iterations =  1.0

     total cpu time spent up to now is       33.2 secs

     total energy              =    -678.59937896 Ry
     estimated scf accuracy    <      15.00258123 Ry

     total magnetization       =     0.91 Bohr mag/cell
     absolute magnetization    =     7.09 Bohr mag/cell

     iteration # 10     ecut=    60.00 Ry     beta= 0.70
     Davidson diagonalization with overlap
     ethr =  2.44E-03,  avg # of iterations =  2.0

     total cpu time spent up to now is       36.5 secs

     total energy              =    -678.82071957 Ry
     estimated scf accuracy    <       3.59388239 Ry

     total magnetization       =     0.94 Bohr mag/cell
     absolute magnetization    =     4.00 Bohr mag/cell

     iteration # 11     ecut=    60.00 Ry     beta= 0.70
     Davidson diagonalization with overlap
     ethr =  2.44E-03,  avg # of iterations =  1.5

     total cpu time spent up to now is       39.3 secs

     total energy              =    -678.78298632 Ry
     estimated scf accuracy    <       4.40789075 Ry

     total magnetization       =     0.86 Bohr mag/cell
     absolute magnetization    =     4.51 Bohr mag/cell

     iteration # 12     ecut=    60.00 Ry     beta= 0.70
     Davidson diagonalization with overlap
     ethr =  2.44E-03,  avg # of iterations =  1.4

     total cpu time spent up to now is       42.0 secs

     total energy              =    -678.76086702 Ry
     estimated scf accuracy    <       1.56051160 Ry

     total magnetization       =     0.85 Bohr mag/cell
     absolute magnetization    =     2.66 Bohr mag/cell

     iteration # 13     ecut=    60.00 Ry     beta= 0.70
     Davidson diagonalization with overlap
     ethr =  2.44E-03,  avg # of iterations =  1.5

     total cpu time spent up to now is       44.8 secs

     total energy              =    -678.78558698 Ry
     estimated scf accuracy    <       0.32392309 Ry

     total magnetization       =     0.85 Bohr mag/cell
     absolute magnetization    =     1.32 Bohr mag/cell

     iteration # 14     ecut=    60.00 Ry     beta= 0.70
     Davidson diagonalization with overlap
     ethr =  9.00E-04,  avg # of iterations =  2.1

     total cpu time spent up to now is       48.0 secs

     total energy              =    -678.99535298 Ry
     estimated scf accuracy    <       2.43252284 Ry

     total magnetization       =     0.98 Bohr mag/cell
     absolute magnetization    =     3.19 Bohr mag/cell

     iteration # 15     ecut=    60.00 Ry     beta= 0.70
     Davidson diagonalization with overlap
     ethr =  9.00E-04,  avg # of iterations =  2.0

     total cpu time spent up to now is       51.4 secs

     total energy              =    -678.37785818 Ry
     estimated scf accuracy    <      31.77230509 Ry

     total magnetization       =     0.68 Bohr mag/cell
     absolute magnetization    =     9.59 Bohr mag/cell

     iteration # 16     ecut=    60.00 Ry     beta= 0.70
     Davidson diagonalization with overlap
     ethr =  9.00E-04,  avg # of iterations =  2.0

     total cpu time spent up to now is       54.9 secs

     total energy              =    -678.75319074 Ry
     estimated scf accuracy    <       1.23876025 Ry

     total magnetization       =     0.97 Bohr mag/cell
     absolute magnetization    =     1.94 Bohr mag/cell

     iteration # 17     ecut=    60.00 Ry     beta= 0.70
     Davidson diagonalization with overlap
     ethr =  9.00E-04,  avg # of iterations =  2.0

     total cpu time spent up to now is       58.3 secs

     total energy              =    -678.75376173 Ry
     estimated scf accuracy    <       5.20671422 Ry

     total magnetization       =     0.99 Bohr mag/cell
     absolute magnetization    =     4.81 Bohr mag/cell

     iteration # 18     ecut=    60.00 Ry     beta= 0.70
     Davidson diagonalization with overlap
     ethr =  9.00E-04,  avg # of iterations =  2.0

     total cpu time spent up to now is       61.6 secs

     total energy              =    -678.86762048 Ry
     estimated scf accuracy    <       6.01959580 Ry

     total magnetization       =     1.01 Bohr mag/cell
     absolute magnetization    =     4.57 Bohr mag/cell

     iteration # 19     ecut=    60.00 Ry     beta= 0.70
     Davidson diagonalization with overlap
     ethr =  9.00E-04,  avg # of iterations =  2.0

     total cpu time spent up to now is       64.7 secs

     total energy              =    -678.81116442 Ry
     estimated scf accuracy    <       7.74413570 Ry

     total magnetization       =     0.99 Bohr mag/cell
     absolute magnetization    =     5.70 Bohr mag/cell

     iteration # 20     ecut=    60.00 Ry     beta= 0.70
     Davidson diagonalization with overlap
     ethr =  9.00E-04,  avg # of iterations =  2.0

     total cpu time spent up to now is       68.1 secs

     total energy              =    -678.81347081 Ry
     estimated scf accuracy    <      19.97622590 Ry

     total magnetization       =     0.78 Bohr mag/cell
     absolute magnetization    =     8.76 Bohr mag/cell

     iteration # 21     ecut=    60.00 Ry     beta= 0.70
     Davidson diagonalization with overlap
     ethr =  9.00E-04,  avg # of iterations =  2.0

     total cpu time spent up to now is       71.5 secs

     total energy              =    -678.95069505 Ry
     estimated scf accuracy    <      10.31411835 Ry

     total magnetization       =     0.96 Bohr mag/cell
     absolute magnetization    =     5.87 Bohr mag/cell

     iteration # 22     ecut=    60.00 Ry     beta= 0.70
     Davidson diagonalization with overlap
     ethr =  9.00E-04,  avg # of iterations =  1.7

     total cpu time spent up to now is       74.4 secs

     total energy              =    -678.69204118 Ry
     estimated scf accuracy    <      13.34948127 Ry

     total magnetization       =     0.96 Bohr mag/cell
     absolute magnetization    =     6.78 Bohr mag/cell

     iteration # 23     ecut=    60.00 Ry     beta= 0.70
     Davidson diagonalization with overlap
     ethr =  9.00E-04,  avg # of iterations =  2.0

     total cpu time spent up to now is       77.8 secs

     total energy              =    -679.13857907 Ry
     estimated scf accuracy    <       7.77089768 Ry

     total magnetization       =     0.96 Bohr mag/cell
     absolute magnetization    =     5.38 Bohr mag/cell

     iteration # 24     ecut=    60.00 Ry     beta= 0.70
     Davidson diagonalization with overlap
     ethr =  9.00E-04,  avg # of iterations =  2.3

     total cpu time spent up to now is       81.3 secs

     total energy              =    -678.99418617 Ry
     estimated scf accuracy    <      58.01692594 Ry

     total magnetization       =     0.55 Bohr mag/cell
     absolute magnetization    =    12.48 Bohr mag/cell

     iteration # 25     ecut=    60.00 Ry     beta= 0.70
     Davidson diagonalization with overlap
     ethr =  9.00E-04,  avg # of iterations =  2.2

     total cpu time spent up to now is       84.9 secs

     total energy              =    -678.91035263 Ry
     estimated scf accuracy    <      68.34783747 Ry

     total magnetization       =     0.70 Bohr mag/cell
     absolute magnetization    =    14.93 Bohr mag/cell

     iteration # 26     ecut=    60.00 Ry     beta= 0.70
     Davidson diagonalization with overlap
     ethr =  9.00E-04,  avg # of iterations =  2.0

     total cpu time spent up to now is       88.3 secs

     total energy              =    -678.58765238 Ry
     estimated scf accuracy    <      32.69970805 Ry

     total magnetization       =     0.55 Bohr mag/cell
     absolute magnetization    =    10.19 Bohr mag/cell

     iteration # 27     ecut=    60.00 Ry     beta= 0.70
     Davidson diagonalization with overlap
     ethr =  9.00E-04,  avg # of iterations =  2.4

     total cpu time spent up to now is       91.9 secs

     total energy              =    -679.66573566 Ry
     estimated scf accuracy    <      43.87331713 Ry

     total magnetization       =     0.69 Bohr mag/cell
     absolute magnetization    =    12.61 Bohr mag/cell

     iteration # 28     ecut=    60.00 Ry     beta= 0.70
     Davidson diagonalization with overlap
     ethr =  9.00E-04,  avg # of iterations =  2.7

     total cpu time spent up to now is       95.7 secs

     total energy              =    -679.61726642 Ry
     estimated scf accuracy    <     118.58204913 Ry

     total magnetization       =     0.60 Bohr mag/cell
     absolute magnetization    =    19.05 Bohr mag/cell

     iteration # 29     ecut=    60.00 Ry     beta= 0.70
     Davidson diagonalization with overlap
     ethr =  9.00E-04,  avg # of iterations =  2.5

     total cpu time spent up to now is       99.4 secs

     total energy              =    -679.76917396 Ry
     estimated scf accuracy    <     121.72840425 Ry

     total magnetization       =     0.25 Bohr mag/cell
     absolute magnetization    =    20.61 Bohr mag/cell

     iteration # 30     ecut=    60.00 Ry     beta= 0.70
     Davidson diagonalization with overlap
     ethr =  9.00E-04,  avg # of iterations =  2.1

     total cpu time spent up to now is      102.9 secs

     total energy              =    -680.11440395 Ry
     estimated scf accuracy    <     110.73690553 Ry

     total magnetization       =     0.43 Bohr mag/cell
     absolute magnetization    =    19.04 Bohr mag/cell

     iteration # 31     ecut=    60.00 Ry     beta= 0.70
     Davidson diagonalization with overlap
     ethr =  9.00E-04,  avg # of iterations =  2.0

     negative rho (up, down):  0.000E+00 9.430E-04

     total cpu time spent up to now is      106.0 secs

     total energy              =    -680.55600271 Ry
     estimated scf accuracy    <      99.32856048 Ry

     total magnetization       =     0.39 Bohr mag/cell
     absolute magnetization    =    18.60 Bohr mag/cell

     iteration # 32     ecut=    60.00 Ry     beta= 0.70
     Davidson diagonalization with overlap
     ethr =  9.00E-04,  avg # of iterations =  2.9

     negative rho (up, down):  9.014E-03 6.458E-02

     total cpu time spent up to now is      109.9 secs

     total energy              =    -678.65837717 Ry
     estimated scf accuracy    <     209.37000696 Ry

     total magnetization       =     0.34 Bohr mag/cell
     absolute magnetization    =    28.82 Bohr mag/cell

     iteration # 33     ecut=    60.00 Ry     beta= 0.70
     Davidson diagonalization with overlap
     ethr =  9.00E-04,  avg # of iterations =  3.4

     negative rho (up, down):  3.718E-03 4.390E-01

     total cpu time spent up to now is      114.6 secs

     total energy              =    -697.94937176 Ry
     estimated scf accuracy    <     411.21876085 Ry

     total magnetization       =     0.11 Bohr mag/cell
     absolute magnetization    =    33.50 Bohr mag/cell

     iteration # 34     ecut=    60.00 Ry     beta= 0.70
     Davidson diagonalization with overlap
     ethr =  9.00E-04,  avg # of iterations =  4.1

     negative rho (up, down):  6.206E-02 3.781E-01

     total cpu time spent up to now is      119.9 secs

     total energy              =    -710.75879774 Ry
     estimated scf accuracy    <    1168.35130070 Ry

     total magnetization       =     0.28 Bohr mag/cell
     absolute magnetization    =    53.40 Bohr mag/cell

     iteration # 35     ecut=    60.00 Ry     beta= 0.70
     Davidson diagonalization with overlap
     ethr =  9.00E-04,  avg # of iterations =  4.6

     negative rho (up, down):  2.492E-01 3.535E-01

     total cpu time spent up to now is      125.3 secs

     total energy              =    -695.13568519 Ry
     estimated scf accuracy    <    1726.31192715 Ry

     total magnetization       =     0.33 Bohr mag/cell
     absolute magnetization    =    80.04 Bohr mag/cell

     iteration # 36     ecut=    60.00 Ry     beta= 0.70
     Davidson diagonalization with overlap
     ethr =  9.00E-04,  avg # of iterations =  6.6

     negative rho (up, down):  3.846E-01 4.143E-01

     total cpu time spent up to now is      132.0 secs

     total energy              =    -742.61191204 Ry
     estimated scf accuracy    <    1862.73878328 Ry

     total magnetization       =     0.61 Bohr mag/cell
     absolute magnetization    =    71.38 Bohr mag/cell

     iteration # 37     ecut=    60.00 Ry     beta= 0.70
     Davidson diagonalization with overlap
     ethr =  9.00E-04,  avg # of iterations =  5.4

     negative rho (up, down):  2.788E-01 3.062E-01

     total cpu time spent up to now is      138.1 secs

     total energy              =    -697.78704341 Ry
     estimated scf accuracy    <    2300.05129328 Ry

     total magnetization       =     0.44 Bohr mag/cell
     absolute magnetization    =    68.85 Bohr mag/cell

     iteration # 38     ecut=    60.00 Ry     beta= 0.70
     Davidson diagonalization with overlap
     ethr =  9.00E-04,  avg # of iterations =  5.0

     negative rho (up, down):  5.624E-01 5.280E-01

     total cpu time spent up to now is      144.0 secs

     total energy              =    -712.55475170 Ry
     estimated scf accuracy    <    1900.99551756 Ry

     total magnetization       =     0.25 Bohr mag/cell
     absolute magnetization    =    61.05 Bohr mag/cell

     iteration # 39     ecut=    60.00 Ry     beta= 0.70
     Davidson diagonalization with overlap
     ethr =  9.00E-04,  avg # of iterations =  5.5

     negative rho (up, down):  7.053E-01 4.251E-01

     total cpu time spent up to now is      150.2 secs

     total energy              =    -714.38510550 Ry
     estimated scf accuracy    <    2156.25089091 Ry

     total magnetization       =     0.18 Bohr mag/cell
     absolute magnetization    =    81.50 Bohr mag/cell

     iteration # 40     ecut=    60.00 Ry     beta= 0.70
     Davidson diagonalization with overlap
     ethr =  9.00E-04,  avg # of iterations =  6.0

     negative rho (up, down):  9.048E-01 4.602E-01

     total cpu time spent up to now is      157.0 secs

     total energy              =    -757.95138523 Ry
     estimated scf accuracy    <    2375.01842491 Ry

     total magnetization       =     0.15 Bohr mag/cell
     absolute magnetization    =    72.95 Bohr mag/cell

     iteration # 41     ecut=    60.00 Ry     beta= 0.70
     Davidson diagonalization with overlap
     ethr =  9.00E-04,  avg # of iterations =  5.2

     negative rho (up, down):  6.867E-01 4.944E-01

     total cpu time spent up to now is      163.2 secs

     total energy              =    -767.74278808 Ry
     estimated scf accuracy    <    2650.89100012 Ry

     total magnetization       =    -0.02 Bohr mag/cell
     absolute magnetization    =    84.24 Bohr mag/cell

     iteration # 42     ecut=    60.00 Ry     beta= 0.70
     Davidson diagonalization with overlap
     ethr =  9.00E-04,  avg # of iterations =  5.0

     negative rho (up, down):  3.554E+00 6.059E+00

     total cpu time spent up to now is      168.7 secs

     total energy              =    -475.62891366 Ry
     estimated scf accuracy    <    2657.15493584 Ry

     total magnetization       =    -0.26 Bohr mag/cell
     absolute magnetization    =    88.76 Bohr mag/cell

     iteration # 43     ecut=    60.00 Ry     beta= 0.70
     Davidson diagonalization with overlap
     ethr =  9.00E-04,  avg # of iterations = 13.2

     negative rho (up, down):  1.323E+00 3.247E+00

     total cpu time spent up to now is      181.6 secs

     total energy              =    -509.62245867 Ry
     estimated scf accuracy    <    5489.29010723 Ry

     total magnetization       =     0.34 Bohr mag/cell
     absolute magnetization    =    19.05 Bohr mag/cell

     iteration # 44     ecut=    60.00 Ry     beta= 0.70
     Davidson diagonalization with overlap
     ethr =  9.00E-04,  avg # of iterations = 10.5

     negative rho (up, down):  2.077E+00 1.759E+00

     total cpu time spent up to now is      191.9 secs

     total energy              =    -549.93764445 Ry
     estimated scf accuracy    <    3076.27546480 Ry

     total magnetization       =     0.25 Bohr mag/cell
     absolute magnetization    =    42.45 Bohr mag/cell

     iteration # 45     ecut=    60.00 Ry     beta= 0.70
     Davidson diagonalization with overlap
     ethr =  9.00E-04,  avg # of iterations =  8.2

     negative rho (up, down):  2.577E+00 2.306E+00

     total cpu time spent up to now is      200.5 secs

     total energy              =    -768.06773286 Ry
     estimated scf accuracy    <    2916.90547343 Ry

     total magnetization       =     0.08 Bohr mag/cell
     absolute magnetization    =    91.38 Bohr mag/cell

     iteration # 46     ecut=    60.00 Ry     beta= 0.70
     Davidson diagonalization with overlap
     ethr =  9.00E-04,  avg # of iterations =  6.1

     negative rho (up, down):  1.367E+00 1.529E+00

     total cpu time spent up to now is      207.3 secs

     total energy              =    -804.03439930 Ry
     estimated scf accuracy    <    2796.43539280 Ry

     total magnetization       =     0.12 Bohr mag/cell
     absolute magnetization    =    96.15 Bohr mag/cell

     iteration # 47     ecut=    60.00 Ry     beta= 0.70
     Davidson diagonalization with overlap
     ethr =  9.00E-04,  avg # of iterations =  7.1

     negative rho (up, down):  3.346E+00 3.182E+00

     total cpu time spent up to now is      214.6 secs

     total energy              =    -817.94877240 Ry
     estimated scf accuracy    <    3169.22871028 Ry

     total magnetization       =     0.09 Bohr mag/cell
     absolute magnetization    =    77.35 Bohr mag/cell

     iteration # 48     ecut=    60.00 Ry     beta= 0.70
     Davidson diagonalization with overlap
     ethr =  9.00E-04,  avg # of iterations =  7.0

     negative rho (up, down):  2.905E+00 2.653E+00

     total cpu time spent up to now is      222.1 secs

     total energy              =    -703.49755320 Ry
     estimated scf accuracy    <    2851.27472459 Ry

     total magnetization       =     0.27 Bohr mag/cell
     absolute magnetization    =    79.98 Bohr mag/cell

     iteration # 49     ecut=    60.00 Ry     beta= 0.70
     Davidson diagonalization with overlap
     ethr =  9.00E-04,  avg # of iterations =  7.2

     negative rho (up, down):  2.125E+00 2.065E+00

     total cpu time spent up to now is      229.8 secs

     total energy              =    -778.40110405 Ry
     estimated scf accuracy    <    2599.39506724 Ry

     total magnetization       =    -0.02 Bohr mag/cell
     absolute magnetization    =   109.86 Bohr mag/cell

     iteration # 50     ecut=    60.00 Ry     beta= 0.70
     Davidson diagonalization with overlap
     ethr =  9.00E-04,  avg # of iterations =  4.6

     negative rho (up, down):  5.994E+00 5.746E+00

     total cpu time spent up to now is      235.3 secs

     total energy              =    -730.12175497 Ry
     estimated scf accuracy    <    2438.20202808 Ry

     total magnetization       =    -0.34 Bohr mag/cell
     absolute magnetization    =    96.49 Bohr mag/cell

     iteration # 51     ecut=    60.00 Ry     beta= 0.70
     Davidson diagonalization with overlap
     ethr =  9.00E-04,  avg # of iterations = 12.1

     negative rho (up, down):  4.995E+00 3.197E+00

     total cpu time spent up to now is      247.1 secs

     total energy              =    -571.44398109 Ry
     estimated scf accuracy    <    5101.48215878 Ry

     total magnetization       =    -0.09 Bohr mag/cell
     absolute magnetization    =    23.58 Bohr mag/cell

     iteration # 52     ecut=    60.00 Ry     beta= 0.70
     Davidson diagonalization with overlap
     ethr =  9.00E-04,  avg # of iterations =  9.1

     negative rho (up, down):  3.240E+00 5.629E+00

     total cpu time spent up to now is      257.3 secs

     total energy              =    -570.95958520 Ry
     estimated scf accuracy    <    2964.80217510 Ry

     total magnetization       =     0.07 Bohr mag/cell
     absolute magnetization    =    89.41 Bohr mag/cell

     iteration # 53     ecut=    60.00 Ry     beta= 0.70
     Davidson diagonalization with overlap
     ethr =  9.00E-04,  avg # of iterations =  8.6

     negative rho (up, down):  4.693E+00 1.134E+01

     total cpu time spent up to now is      266.3 secs

     total energy              =    -295.42479729 Ry
     estimated scf accuracy    <    2576.38693530 Ry

     total magnetization       =    -0.15 Bohr mag/cell
     absolute magnetization    =    63.02 Bohr mag/cell

     iteration # 54     ecut=    60.00 Ry     beta= 0.70
     Davidson diagonalization with overlap
     ethr =  9.00E-04,  avg # of iterations = 14.4

     negative rho (up, down):  4.512E+00 4.322E+00

     total cpu time spent up to now is      278.1 secs

     total energy              =    -525.18354416 Ry
     estimated scf accuracy    <    5563.13080685 Ry

     total magnetization       =    -0.21 Bohr mag/cell
     absolute magnetization    =    18.05 Bohr mag/cell

     iteration # 55     ecut=    60.00 Ry     beta= 0.70
     Davidson diagonalization with overlap
     ethr =  9.00E-04,  avg # of iterations =  8.6

     negative rho (up, down):  4.178E+00 4.129E+00

     total cpu time spent up to now is      287.3 secs

     total energy              =    -747.72502814 Ry
     estimated scf accuracy    <    2056.73094492 Ry

     total magnetization       =     0.05 Bohr mag/cell
     absolute magnetization    =   108.20 Bohr mag/cell

     iteration # 56     ecut=    60.00 Ry     beta= 0.70
     Davidson diagonalization with overlap
     ethr =  9.00E-04,  avg # of iterations =  5.4

     negative rho (up, down):  4.204E+00 4.488E+00

     total cpu time spent up to now is      293.4 secs

     total energy              =    -771.36941311 Ry
     estimated scf accuracy    <    2163.47541302 Ry

     total magnetization       =     0.30 Bohr mag/cell
     absolute magnetization    =   107.16 Bohr mag/cell

     iteration # 57     ecut=    60.00 Ry     beta= 0.70
     Davidson diagonalization with overlap
     ethr =  9.00E-04,  avg # of iterations =  8.2

     negative rho (up, down):  5.532E+00 5.345E+00

     total cpu time spent up to now is      301.8 secs

     total energy              =    -530.76042624 Ry
     estimated scf accuracy    <    2860.96901570 Ry

     total magnetization       =     0.33 Bohr mag/cell
     absolute magnetization    =    64.62 Bohr mag/cell

     iteration # 58     ecut=    60.00 Ry     beta= 0.70
     Davidson diagonalization with overlap
     ethr =  9.00E-04,  avg # of iterations = 12.0

     negative rho (up, down):  5.016E+00 4.399E+00

     total cpu time spent up to now is      313.6 secs

     total energy              =    -577.12899675 Ry
     estimated scf accuracy    <    4238.04352247 Ry

     total magnetization       =     0.17 Bohr mag/cell
     absolute magnetization    =    43.13 Bohr mag/cell

     iteration # 59     ecut=    60.00 Ry     beta= 0.70
     Davidson diagonalization with overlap
     ethr =  9.00E-04,  avg # of iterations =  8.6

     negative rho (up, down):  5.397E+00 4.483E+00

     total cpu time spent up to now is      323.1 secs

     total energy              =    -823.01811188 Ry
     estimated scf accuracy    <    2465.22944780 Ry

     total magnetization       =     0.17 Bohr mag/cell
     absolute magnetization    =   111.11 Bohr mag/cell

     iteration # 60     ecut=    60.00 Ry     beta= 0.70
     Davidson diagonalization with overlap
     ethr =  9.00E-04,  avg # of iterations =  5.3

     negative rho (up, down):  6.139E+00 4.024E+00

     total cpu time spent up to now is      328.7 secs

     total energy              =    -677.49088128 Ry
     estimated scf accuracy    <    2606.24816837 Ry

     total magnetization       =    -0.11 Bohr mag/cell
     absolute magnetization    =   102.17 Bohr mag/cell

     iteration # 61     ecut=    60.00 Ry     beta= 0.70
     Davidson diagonalization with overlap
     ethr =  9.00E-04,  avg # of iterations =  9.1

     negative rho (up, down):  6.599E+00 4.813E+00

     total cpu time spent up to now is      338.2 secs

     total energy              =    -648.17043289 Ry
     estimated scf accuracy    <    3394.99195441 Ry

     total magnetization       =    -0.21 Bohr mag/cell
     absolute magnetization    =    69.10 Bohr mag/cell

     iteration # 62     ecut=    60.00 Ry     beta= 0.70
     Davidson diagonalization with overlap
     ethr =  9.00E-04,  avg # of iterations =  9.6

     negative rho (up, down):  6.367E+00 7.887E+00

     total cpu time spent up to now is      348.3 secs

     total energy              =    -429.33938688 Ry
     estimated scf accuracy    <    3654.57568337 Ry

     total magnetization       =     0.30 Bohr mag/cell
     absolute magnetization    =    68.96 Bohr mag/cell

     iteration # 63     ecut=    60.00 Ry     beta= 0.70
     Davidson diagonalization with overlap
     ethr =  9.00E-04,  avg # of iterations = 14.3

     negative rho (up, down):  4.683E+00 5.850E+00

     total cpu time spent up to now is      362.0 secs

     total energy              =    -543.96978872 Ry
     estimated scf accuracy    <    5607.70841057 Ry

     total magnetization       =    -0.77 Bohr mag/cell
     absolute magnetization    =    13.31 Bohr mag/cell

     iteration # 64     ecut=    60.00 Ry     beta= 0.70
     Davidson diagonalization with overlap
     ethr =  9.00E-04,  avg # of iterations =  8.9

     negative rho (up, down):  4.910E+00 5.548E+00

     total cpu time spent up to now is      371.7 secs

     total energy              =    -799.26585860 Ry
     estimated scf accuracy    <    2545.20356552 Ry

     total magnetization       =    -0.11 Bohr mag/cell
     absolute magnetization    =   113.34 Bohr mag/cell

     iteration # 65     ecut=    60.00 Ry     beta= 0.70
     Davidson diagonalization with overlap
     ethr =  9.00E-04,  avg # of iterations =  5.0

     negative rho (up, down):  4.969E+00 4.993E+00

     total cpu time spent up to now is      377.5 secs

     total energy              =    -784.17274353 Ry
     estimated scf accuracy    <    2504.59586607 Ry

     total magnetization       =     0.02 Bohr mag/cell
     absolute magnetization    =   117.66 Bohr mag/cell

     iteration # 66     ecut=    60.00 Ry     beta= 0.70
     Davidson diagonalization with overlap
     ethr =  9.00E-04,  avg # of iterations =  5.3

     negative rho (up, down):  7.081E+00 6.540E+00

     total cpu time spent up to now is      383.5 secs

     total energy              =    -684.33226322 Ry
     estimated scf accuracy    <    2468.50046192 Ry

     total magnetization       =     0.10 Bohr mag/cell
     absolute magnetization    =   116.84 Bohr mag/cell

     iteration # 67     ecut=    60.00 Ry     beta= 0.70
     Davidson diagonalization with overlap
     ethr =  9.00E-04,  avg # of iterations =  9.5

     negative rho (up, down):  5.416E+00 6.874E+00

     total cpu time spent up to now is      393.4 secs

     total energy              =    -567.54210527 Ry
     estimated scf accuracy    <    3143.00119407 Ry

     total magnetization       =    -0.19 Bohr mag/cell
     absolute magnetization    =    79.18 Bohr mag/cell

     iteration # 68     ecut=    60.00 Ry     beta= 0.70
     Davidson diagonalization with overlap
     ethr =  9.00E-04,  avg # of iterations =  8.4

     negative rho (up, down):  6.017E+00 6.402E+00

     total cpu time spent up to now is      402.5 secs

     total energy              =    -776.12251202 Ry
     estimated scf accuracy    <    2025.39706096 Ry

     total magnetization       =    -0.02 Bohr mag/cell
     absolute magnetization    =   118.02 Bohr mag/cell

     iteration # 69     ecut=    60.00 Ry     beta= 0.70
     Davidson diagonalization with overlap
     ethr =  9.00E-04,  avg # of iterations =  6.4

     negative rho (up, down):  8.360E+00 5.932E+00

     total cpu time spent up to now is      409.3 secs

     total energy              =    -758.46234358 Ry
     estimated scf accuracy    <    2269.66685894 Ry

     total magnetization       =     0.64 Bohr mag/cell
     absolute magnetization    =   119.06 Bohr mag/cell

     iteration # 70     ecut=    60.00 Ry     beta= 0.70
     Davidson diagonalization with overlap
     ethr =  9.00E-04,  avg # of iterations =  8.0

     negative rho (up, down):  8.745E+00 9.177E+00

     total cpu time spent up to now is      417.8 secs

     total energy              =    -507.99507468 Ry
     estimated scf accuracy    <    2634.38343422 Ry

     total magnetization       =    -0.01 Bohr mag/cell
     absolute magnetization    =    87.98 Bohr mag/cell

     iteration # 71     ecut=    60.00 Ry     beta= 0.70
     Davidson diagonalization with overlap
     ethr =  9.00E-04,  avg # of iterations = 13.2

     negative rho (up, down):  8.687E+00 6.337E+00

     total cpu time spent up to now is      430.3 secs

     total energy              =    -476.71509883 Ry
     estimated scf accuracy    <    4535.30968670 Ry

     total magnetization       =    -0.43 Bohr mag/cell
     absolute magnetization    =    33.33 Bohr mag/cell

     iteration # 72     ecut=    60.00 Ry     beta= 0.70
     Davidson diagonalization with overlap
     ethr =  9.00E-04,  avg # of iterations =  9.6

     negative rho (up, down):  8.125E+00 9.682E+00

     total cpu time spent up to now is      440.1 secs

     total energy              =    -668.84968509 Ry
     estimated scf accuracy    <    1751.21472244 Ry

     total magnetization       =     0.07 Bohr mag/cell
     absolute magnetization    =    91.45 Bohr mag/cell

     iteration # 73     ecut=    60.00 Ry     beta= 0.70
     Davidson diagonalization with overlap
     ethr =  9.00E-04,  avg # of iterations = 10.2

     negative rho (up, down):  6.516E+00 9.560E+00

     total cpu time spent up to now is      449.3 secs

     total energy              =    -607.63606892 Ry
     estimated scf accuracy    <    3331.19869188 Ry

     total magnetization       =    -0.36 Bohr mag/cell
     absolute magnetization    =    63.81 Bohr mag/cell

     iteration # 74     ecut=    60.00 Ry     beta= 0.70
     Davidson diagonalization with overlap
     ethr =  9.00E-04,  avg # of iterations =  9.3

     negative rho (up, down):  9.665E+00 9.009E+00

     total cpu time spent up to now is      458.9 secs

     total energy              =    -572.44913502 Ry
     estimated scf accuracy    <    2944.46610319 Ry

     total magnetization       =    -0.39 Bohr mag/cell
     absolute magnetization    =    75.99 Bohr mag/cell

     iteration # 75     ecut=    60.00 Ry     beta= 0.70
     Davidson diagonalization with overlap
     ethr =  9.00E-04,  avg # of iterations =  8.5

     negative rho (up, down):  9.741E+00 9.001E+00

     total cpu time spent up to now is      467.8 secs

     total energy              =    -781.49943682 Ry
     estimated scf accuracy    <    1732.52016438 Ry

     total magnetization       =     0.07 Bohr mag/cell
     absolute magnetization    =   118.70 Bohr mag/cell

     iteration # 76     ecut=    60.00 Ry     beta= 0.70
     Davidson diagonalization with overlap
     ethr =  9.00E-04,  avg # of iterations =  4.2

     negative rho (up, down):  1.158E+01 1.068E+01

     total cpu time spent up to now is      472.4 secs

     total energy              =    -780.20507854 Ry
     estimated scf accuracy    <    1732.61458565 Ry

     total magnetization       =     0.29 Bohr mag/cell
     absolute magnetization    =   117.47 Bohr mag/cell

     iteration # 77     ecut=    60.00 Ry     beta= 0.70
     Davidson diagonalization with overlap
     ethr =  9.00E-04,  avg # of iterations =  7.3

     negative rho (up, down):  9.765E+00 9.276E+00

     total cpu time spent up to now is      479.8 secs

     total energy              =    -688.66024186 Ry
     estimated scf accuracy    <    1988.28424398 Ry

     total magnetization       =    -0.01 Bohr mag/cell
     absolute magnetization    =   105.95 Bohr mag/cell

     iteration # 78     ecut=    60.00 Ry     beta= 0.70
     Davidson diagonalization with overlap
     ethr =  9.00E-04,  avg # of iterations =  6.8

     negative rho (up, down):  7.966E+00 7.833E+00

     total cpu time spent up to now is      487.4 secs

     total energy              =    -757.92960481 Ry
     estimated scf accuracy    <    1644.20339644 Ry

     total magnetization       =     0.30 Bohr mag/cell
     absolute magnetization    =   122.16 Bohr mag/cell

     iteration # 79     ecut=    60.00 Ry     beta= 0.70
     Davidson diagonalization with overlap
     ethr =  9.00E-04,  avg # of iterations =  5.3

     negative rho (up, down):  9.343E+00 7.866E+00

     total cpu time spent up to now is      493.5 secs

     total energy              =    -748.34442565 Ry
     estimated scf accuracy    <    1883.47872657 Ry

     total magnetization       =     0.14 Bohr mag/cell
     absolute magnetization    =   125.84 Bohr mag/cell

     iteration # 80     ecut=    60.00 Ry     beta= 0.70
     Davidson diagonalization with overlap
     ethr =  9.00E-04,  avg # of iterations =  6.1

     negative rho (up, down):  1.550E+01 1.544E+01

     total cpu time spent up to now is      500.2 secs

     total energy              =    -743.65855466 Ry
     estimated scf accuracy    <    1648.43027711 Ry

     total magnetization       =     0.02 Bohr mag/cell
     absolute magnetization    =   113.45 Bohr mag/cell

     iteration # 81     ecut=    60.00 Ry     beta= 0.70
     Davidson diagonalization with overlap
     ethr =  9.00E-04,  avg # of iterations =  8.4

     negative rho (up, down):  1.649E+01 1.312E+01

     total cpu time spent up to now is      508.8 secs

     total energy              =    -475.13062322 Ry
     estimated scf accuracy    <    3238.51018310 Ry

     total magnetization       =    -0.22 Bohr mag/cell
     absolute magnetization    =    66.14 Bohr mag/cell

     iteration # 82     ecut=    60.00 Ry     beta= 0.70
     Davidson diagonalization with overlap
     ethr =  9.00E-04,  avg # of iterations = 10.2

     negative rho (up, down):  1.479E+01 1.485E+01

     total cpu time spent up to now is      518.7 secs

     total energy              =    -617.86606954 Ry
     estimated scf accuracy    <    2398.94985408 Ry

     total magnetization       =     0.40 Bohr mag/cell
     absolute magnetization    =    84.21 Bohr mag/cell

     iteration # 83     ecut=    60.00 Ry     beta= 0.70
     Davidson diagonalization with overlap
     ethr =  9.00E-04,  avg # of iterations =  7.4

     negative rho (up, down):  1.376E+01 1.976E+01

     total cpu time spent up to now is      526.6 secs

     total energy              =    -627.43522205 Ry
     estimated scf accuracy    <     735.62369882 Ry

     total magnetization       =    -0.06 Bohr mag/cell
     absolute magnetization    =   115.00 Bohr mag/cell

     iteration # 84     ecut=    60.00 Ry     beta= 0.70
     Davidson diagonalization with overlap
     ethr =  9.00E-04,  avg # of iterations = 11.3

     negative rho (up, down):  1.582E+01 1.593E+01

     total cpu time spent up to now is      538.0 secs

     total energy              =    -451.25928155 Ry
     estimated scf accuracy    <    5158.81208171 Ry

     total magnetization       =    -0.53 Bohr mag/cell
     absolute magnetization    =    40.59 Bohr mag/cell

     iteration # 85     ecut=    60.00 Ry     beta= 0.70
     Davidson diagonalization with overlap
     ethr =  9.00E-04,  avg # of iterations =  8.5

     negative rho (up, down):  1.653E+01 1.689E+01

     total cpu time spent up to now is      547.3 secs

     total energy              =    -680.43942129 Ry
     estimated scf accuracy    <    1005.51591768 Ry

     total magnetization       =    -0.09 Bohr mag/cell
     absolute magnetization    =   121.82 Bohr mag/cell

     iteration # 86     ecut=    60.00 Ry     beta= 0.70
     Davidson diagonalization with overlap
     ethr =  9.00E-04,  avg # of iterations =  5.8

     negative rho (up, down):  1.828E+01 1.754E+01

     total cpu time spent up to now is      553.6 secs

     total energy              =    -690.26595847 Ry
     estimated scf accuracy    <     557.20583432 Ry

     total magnetization       =     0.06 Bohr mag/cell
     absolute magnetization    =   130.25 Bohr mag/cell

     iteration # 87     ecut=    60.00 Ry     beta= 0.70
     Davidson diagonalization with overlap
     ethr =  9.00E-04,  avg # of iterations =  5.8

     negative rho (up, down):  1.787E+01 1.792E+01

     total cpu time spent up to now is      560.0 secs

     total energy              =    -685.28039429 Ry
     estimated scf accuracy    <     727.87641782 Ry

     total magnetization       =     0.11 Bohr mag/cell
     absolute magnetization    =   122.48 Bohr mag/cell

     iteration # 88     ecut=    60.00 Ry     beta= 0.70
     Davidson diagonalization with overlap
     ethr =  9.00E-04,  avg # of iterations =  8.2

     negative rho (up, down):  1.534E+01 1.530E+01

     total cpu time spent up to now is      569.0 secs

     total energy              =    -586.95545190 Ry
     estimated scf accuracy    <    2746.70300361 Ry

     total magnetization       =     0.10 Bohr mag/cell
     absolute magnetization    =    84.77 Bohr mag/cell

     iteration # 89     ecut=    60.00 Ry     beta= 0.70
     Davidson diagonalization with overlap
     ethr =  9.00E-04,  avg # of iterations =  7.2

     negative rho (up, down):  1.613E+01 1.586E+01

     total cpu time spent up to now is      577.1 secs

     total energy              =    -708.45188639 Ry
     estimated scf accuracy    <     704.18807119 Ry

     total magnetization       =     0.03 Bohr mag/cell
     absolute magnetization    =   130.72 Bohr mag/cell

     iteration # 90     ecut=    60.00 Ry     beta= 0.70
     Davidson diagonalization with overlap
     ethr =  9.00E-04,  avg # of iterations =  3.7

     negative rho (up, down):  1.996E+01 1.909E+01

     total cpu time spent up to now is      581.5 secs

     total energy              =    -681.61107777 Ry
     estimated scf accuracy    <     638.11726722 Ry

     total magnetization       =     0.18 Bohr mag/cell
     absolute magnetization    =   130.25 Bohr mag/cell

     iteration # 91     ecut=    60.00 Ry     beta= 0.70
     Davidson diagonalization with overlap
     ethr =  9.00E-04,  avg # of iterations =  7.5

     negative rho (up, down):  1.773E+01 1.694E+01

     total cpu time spent up to now is      589.4 secs

     total energy              =    -614.67237877 Ry
     estimated scf accuracy    <    2027.63499576 Ry

     total magnetization       =    -0.03 Bohr mag/cell
     absolute magnetization    =    87.69 Bohr mag/cell

     iteration # 92     ecut=    60.00 Ry     beta= 0.70
     Davidson diagonalization with overlap
     ethr =  9.00E-04,  avg # of iterations =  7.3

     negative rho (up, down):  1.873E+01 1.946E+01

     total cpu time spent up to now is      597.2 secs

     total energy              =    -677.75884567 Ry
     estimated scf accuracy    <     549.50077289 Ry

     total magnetization       =     0.39 Bohr mag/cell
     absolute magnetization    =   126.67 Bohr mag/cell

     iteration # 93     ecut=    60.00 Ry     beta= 0.70
     Davidson diagonalization with overlap
     ethr =  9.00E-04,  avg # of iterations =  7.7

     negative rho (up, down):  2.053E+01 2.291E+01

     total cpu time spent up to now is      605.6 secs

     total energy              =    -493.73198166 Ry
     estimated scf accuracy    <    2611.84883625 Ry

     total magnetization       =     0.12 Bohr mag/cell
     absolute magnetization    =    75.15 Bohr mag/cell

     iteration # 94     ecut=    60.00 Ry     beta= 0.70
     Davidson diagonalization with overlap
     ethr =  9.00E-04,  avg # of iterations =  9.1

     negative rho (up, down):  1.994E+01 2.001E+01

     total cpu time spent up to now is      615.0 secs

     total energy              =    -591.06176554 Ry
     estimated scf accuracy    <    1897.12094583 Ry

     total magnetization       =    -0.36 Bohr mag/cell
     absolute magnetization    =    94.62 Bohr mag/cell

     iteration # 95     ecut=    60.00 Ry     beta= 0.70
     Davidson diagonalization with overlap
     ethr =  9.00E-04,  avg # of iterations =  6.7

     negative rho (up, down):  2.100E+01 2.092E+01

     total cpu time spent up to now is      622.4 secs

     total energy              =    -670.68049199 Ry
     estimated scf accuracy    <     275.19729336 Ry

     total magnetization       =    -0.27 Bohr mag/cell
     absolute magnetization    =   130.85 Bohr mag/cell

     iteration # 96     ecut=    60.00 Ry     beta= 0.70
     Davidson diagonalization with overlap
     ethr =  9.00E-04,  avg # of iterations =  4.0

     negative rho (up, down):  2.304E+01 2.247E+01

     total cpu time spent up to now is      627.0 secs

     total energy              =    -657.16122590 Ry
     estimated scf accuracy    <     205.63855341 Ry

     total magnetization       =     0.14 Bohr mag/cell
     absolute magnetization    =   130.96 Bohr mag/cell

     iteration # 97     ecut=    60.00 Ry     beta= 0.70
     Davidson diagonalization with overlap
     ethr =  9.00E-04,  avg # of iterations =  4.8

     negative rho (up, down):  2.373E+01 2.446E+01

     total cpu time spent up to now is      632.5 secs

     total energy              =    -642.27965415 Ry
     estimated scf accuracy    <     156.94748668 Ry

     total magnetization       =     0.16 Bohr mag/cell
     absolute magnetization    =   129.29 Bohr mag/cell

     iteration # 98     ecut=    60.00 Ry     beta= 0.70
     Davidson diagonalization with overlap
     ethr =  9.00E-04,  avg # of iterations =  6.5

     negative rho (up, down):  2.391E+01 2.402E+01

     total cpu time spent up to now is      639.4 secs

     total energy              =    -620.83392353 Ry
     estimated scf accuracy    <     607.43637284 Ry

     total magnetization       =     0.01 Bohr mag/cell
     absolute magnetization    =   120.30 Bohr mag/cell

     iteration # 99     ecut=    60.00 Ry     beta= 0.70
     Davidson diagonalization with overlap
     ethr =  9.00E-04,  avg # of iterations =  6.0

     negative rho (up, down):  2.410E+01 2.404E+01

     total cpu time spent up to now is      645.8 secs

     total energy              =    -648.00894781 Ry
     estimated scf accuracy    <      72.92424552 Ry

     total magnetization       =    -0.07 Bohr mag/cell
     absolute magnetization    =   130.84 Bohr mag/cell

     iteration #100     ecut=    60.00 Ry     beta= 0.70
     Davidson diagonalization with overlap
     ethr =  9.00E-04,  avg # of iterations =  4.0

     negative rho (up, down):  2.576E+01 2.556E+01

     total cpu time spent up to now is      650.4 secs

     total energy              =    -636.85404676 Ry
     estimated scf accuracy    <      68.80665471 Ry

     total magnetization       =     0.01 Bohr mag/cell
     absolute magnetization    =   130.85 Bohr mag/cell

     End of self-consistent calculation

     convergence NOT achieved after 100 iterations: stopping

     Writing config to output data dir ./out/pwscf.save/

     init_run     :      0.72s CPU      0.99s WALL (       1 calls)
     electrons    :    485.18s CPU    649.30s WALL (       1 calls)

     Called by init_run:
     wfcinit      :      0.63s CPU      0.87s WALL (       1 calls)
     potinit      :      0.02s CPU      0.02s WALL (       1 calls)
     hinit0       :      0.06s CPU      0.09s WALL (       1 calls)

     Called by electrons:
     c_bands      :    456.41s CPU    611.30s WALL (     100 calls)
     sum_band     :     27.81s CPU     36.90s WALL (     100 calls)
     v_of_rho     :      0.48s CPU      0.53s WALL (     101 calls)
     newd         :      0.35s CPU      0.38s WALL (     101 calls)
     mix_rho      :      0.08s CPU      0.14s WALL (     100 calls)

     Called by c_bands:
     init_us_2    :      0.80s CPU      1.06s WALL (   73164 calls)
     init_us_2:cp :      0.72s CPU      0.97s WALL (   73164 calls)
     cegterg      :    450.54s CPU    603.28s WALL (   36400 calls)

     Called by *egterg:
     cdiaghg      :    131.75s CPU    173.87s WALL (  248110 calls)
     h_psi        :    218.35s CPU    299.13s WALL (  248474 calls)
     s_psi        :      9.97s CPU     12.86s WALL (  248474 calls)
     g_psi        :      0.46s CPU      0.56s WALL (  211710 calls)

     Called by h_psi:
     h_psi:calbec :     14.46s CPU     19.65s WALL (  248474 calls)
     vloc_psi     :    193.32s CPU    265.52s WALL (  248474 calls)
     add_vuspsi   :      9.56s CPU     12.63s WALL (  248474 calls)

     General routines
     calbec       :     16.87s CPU     22.91s WALL (  284874 calls)
     fft          :      0.21s CPU      0.28s WALL (    2523 calls)
     ffts         :      0.02s CPU      0.02s WALL (     402 calls)
     fftw         :    207.15s CPU    283.91s WALL ( 7954206 calls)
     interpolate  :      0.02s CPU      0.03s WALL (     202 calls)
     davcio       :      0.00s CPU      0.00s WALL (      18 calls)

     Parallel routines

     PWSCF        :   8m 6.03s CPU  10m50.47s WALL


   This run was terminated on:  16:39:55  23Jun2023            

=------------------------------------------------------------------------------=
   JOB DONE.
=------------------------------------------------------------------------------=
Note: The following floating-point exceptions are signalling: IEEE_DENORMAL
Note: The following floating-point exceptions are signalling: IEEE_DENORMAL
Note: The following floating-point exceptions are signalling: IEEE_DENORMAL
Note: The following floating-point exceptions are signalling: IEEE_DENORMAL
Note: The following floating-point exceptions are signalling: IEEE_DENORMAL
Note: The following floating-point exceptions are signalling: IEEE_DENORMAL
Note: The following floating-point exceptions are signalling: IEEE_DENORMAL
Note: The following floating-point exceptions are signalling: IEEE_DENORMAL
