Ignoring PCI device with non-16bit domain.
Pass --enable-32bits-pci-domain to configure to support such devices
(warning: it would break the library ABI, don't enable unless really needed).

     Program PWSCF v.7.1 starts on 18Jun2023 at 15:40: 4 

     This program is part of the open-source Quantum ESPRESSO suite
     for quantum simulation of materials; please cite
         "P. Giannozzi et al., J. Phys.:Condens. Matter 21 395502 (2009);
         "P. Giannozzi et al., J. Phys.:Condens. Matter 29 465901 (2017);
         "P. Giannozzi et al., J. Chem. Phys. 152 154105 (2020);
          URL http://www.quantum-espresso.org", 
     in publications or presentations arising from this work. More details at
     http://www.quantum-espresso.org/quote

     Parallel version (MPI), running on    24 processors

     MPI processes distributed on     1 nodes
     9571 MiB available memory on the printing compute node when the environment starts

     Reading input from Ni_monoclinic_bcm_atoms.in

     Current dimensions of program PWSCF are:
     Max number of different atomic species (ntypx) = 10
     Max number of k-points (npk) =  40000
     Max angular momentum in pseudopotentials (lmaxx) =  4

     K-points division:     npool     =       2
     R & G space division:  proc/nbgrp/npool/nimage =      12
     Subspace diagonalization in iterative solution of the eigenvalue problem:
     a serial algorithm will be used


     Parallelization info
     --------------------
     sticks:   dense  smooth     PW     G-vecs:    dense   smooth      PW
     Min          55      27      9                 1701      601     116
     Max          56      28     10                 1705      606     120
     Sum         665     335    111                20429     7255    1413

     Using Slab Decomposition



     bravais-lattice index     =            0
     lattice parameter (alat)  =       4.2143  a.u.
     unit-cell volume          =     115.1523 (a.u.)^3
     number of atoms/cell      =            1
     number of atomic types    =            1
     number of electrons       =        18.00
     number of Kohn-Sham states=           13
     kinetic-energy cutoff     =      60.0000  Ry
     charge density cutoff     =     480.0000  Ry
     scf convergence threshold =      1.0E-06
     mixing beta               =       0.7000
     number of iterations used =            8  TF        mixing
     energy convergence thresh.=      1.0E-05
     force convergence thresh. =      1.0E-04
     press convergence thresh. =      5.0E-01
     Exchange-correlation= PBE
                           (   1   4   3   4   0   0   0)
     nstep                     =           50


     celldm(1)=   4.214335  celldm(2)=   0.000000  celldm(3)=   0.000000
     celldm(4)=   0.000000  celldm(5)=   0.000000  celldm(6)=   0.000000

     crystal axes: (cart. coord. in units of alat)
               a(1) = (   1.000000   0.000000   0.000000 )  
               a(2) = (   0.180329   0.983606   0.000000 )  
               a(3) = (  -0.437333  -0.364444   1.564099 )  

     reciprocal axes: (cart. coord. in units 2 pi/alat)
               b(1) = (  1.000000 -0.183334  0.236889 )  
               b(2) = ( -0.000000  1.016667  0.236889 )  
               b(3) = (  0.000000  0.000000  0.639346 )  


     PseudoPot. # 1 for Ni read from file:
     /home/jmgoff/work/automation/qe_pseudos/Ni.upf
     MD5 check sum: caf20d35bef94d268ef04de15446df97
     Pseudo is Ultrasoft + core correction, Zval = 18.0
     Generated using 'atomic' code by A. Dal Corso  v.7.1
     Using radial grid of 1195 points,  6 beta functions with: 
                l(1) =   0
                l(2) =   0
                l(3) =   1
                l(4) =   1
                l(5) =   2
                l(6) =   2
     Q(r) pseudized with 0 coefficients 


     atomic species   valence    mass     pseudopotential
        Ni            18.00    58.69340     Ni( 1.00)

     Starting magnetic structure 
     atomic species   magnetization
        Ni           1.000

     No symmetry found



   Cartesian axes

     site n.     atom                  positions (alat units)
         1           Ni  tau(   1) = (   0.0000000   0.0000000   0.0000000  )

     number of k points=   304  Marzari-Vanderbilt smearing, width (Ry)=  0.0100

     Number of k-points >= 100: set verbosity='high' to print them.

     Dense  grid:    20429 G-vectors     FFT dimensions: (  30,  30,  50)

     Smooth grid:     7255 G-vectors     FFT dimensions: (  24,  24,  36)

     Estimated max dynamical RAM per process >      12.42 MB

     Estimated total dynamical RAM >     288.01 MB

     Check: negative core charge=   -0.000001
     Generating pointlists ...
     new r_m :   0.4125 (alat units)  1.7384 (a.u.) for type    1

     Initial potential from superposition of free atoms

     starting charge      17.9998, renormalised to      18.0000
     Starting wfcs are   10 randomized atomic wfcs +    3 random wfcs

     total cpu time spent up to now is        0.7 secs

     Self-consistent Calculation

     iteration #  1     ecut=    60.00 Ry     beta= 0.70
     Davidson diagonalization with overlap
     ethr =  1.00E-02,  avg # of iterations =  5.8

     negative rho (up, down):  0.000E+00 1.763E-04

     total cpu time spent up to now is        3.0 secs

     total energy              =    -335.62806584 Ry
     estimated scf accuracy    <       8.96735847 Ry

     total magnetization       =     6.68 Bohr mag/cell
     absolute magnetization    =     6.68 Bohr mag/cell

     iteration #  2     ecut=    60.00 Ry     beta= 0.70
     Davidson diagonalization with overlap
     ethr =  1.00E-02,  avg # of iterations =  2.6

     total cpu time spent up to now is        4.7 secs

     total energy              =    -338.49867013 Ry
     estimated scf accuracy    <       8.54835322 Ry

     total magnetization       =     0.56 Bohr mag/cell
     absolute magnetization    =     0.80 Bohr mag/cell

     iteration #  3     ecut=    60.00 Ry     beta= 0.70
     Davidson diagonalization with overlap
     ethr =  1.00E-02,  avg # of iterations =  2.0

     total cpu time spent up to now is        6.0 secs

     total energy              =    -339.51161850 Ry
     estimated scf accuracy    <       1.14957870 Ry

     total magnetization       =     1.54 Bohr mag/cell
     absolute magnetization    =     1.64 Bohr mag/cell

     iteration #  4     ecut=    60.00 Ry     beta= 0.70
     Davidson diagonalization with overlap
     ethr =  6.39E-03,  avg # of iterations =  2.5

     total cpu time spent up to now is        7.6 secs

     total energy              =    -336.06058199 Ry
     estimated scf accuracy    <     226.55661711 Ry

     total magnetization       =     0.78 Bohr mag/cell
     absolute magnetization    =    21.73 Bohr mag/cell

     iteration #  5     ecut=    60.00 Ry     beta= 0.70
     Davidson diagonalization with overlap
     ethr =  6.39E-03,  avg # of iterations =  2.1

     total cpu time spent up to now is        9.1 secs

     total energy              =    -339.47476754 Ry
     estimated scf accuracy    <       0.10170669 Ry

     total magnetization       =     0.97 Bohr mag/cell
     absolute magnetization    =     1.21 Bohr mag/cell

     iteration #  6     ecut=    60.00 Ry     beta= 0.70
     Davidson diagonalization with overlap
     ethr =  5.65E-04,  avg # of iterations =  2.5

     total cpu time spent up to now is       10.7 secs

     total energy              =    -339.26862602 Ry
     estimated scf accuracy    <      24.44390478 Ry

     total magnetization       =     0.74 Bohr mag/cell
     absolute magnetization    =     7.24 Bohr mag/cell

     iteration #  7     ecut=    60.00 Ry     beta= 0.70
     Davidson diagonalization with overlap
     ethr =  5.65E-04,  avg # of iterations =  2.0

     total cpu time spent up to now is       12.2 secs

     total energy              =    -339.46566855 Ry
     estimated scf accuracy    <       2.31022697 Ry

     total magnetization       =     0.84 Bohr mag/cell
     absolute magnetization    =     1.82 Bohr mag/cell

     iteration #  8     ecut=    60.00 Ry     beta= 0.70
     Davidson diagonalization with overlap
     ethr =  5.65E-04,  avg # of iterations =  2.0

     total cpu time spent up to now is       13.5 secs

     total energy              =    -339.51246131 Ry
     estimated scf accuracy    <       0.69381167 Ry

     total magnetization       =     0.86 Bohr mag/cell
     absolute magnetization    =     1.70 Bohr mag/cell

     iteration #  9     ecut=    60.00 Ry     beta= 0.70
     Davidson diagonalization with overlap
     ethr =  5.65E-04,  avg # of iterations =  2.0

     total cpu time spent up to now is       14.8 secs

     total energy              =    -339.48485398 Ry
     estimated scf accuracy    <       1.91077448 Ry

     total magnetization       =     0.85 Bohr mag/cell
     absolute magnetization    =     2.41 Bohr mag/cell

     iteration # 10     ecut=    60.00 Ry     beta= 0.70
     Davidson diagonalization with overlap
     ethr =  5.65E-04,  avg # of iterations =  2.0

     total cpu time spent up to now is       16.1 secs

     total energy              =    -339.48623691 Ry
     estimated scf accuracy    <       0.47816832 Ry

     total magnetization       =     0.86 Bohr mag/cell
     absolute magnetization    =     1.37 Bohr mag/cell

     iteration # 11     ecut=    60.00 Ry     beta= 0.70
     Davidson diagonalization with overlap
     ethr =  5.65E-04,  avg # of iterations =  2.0

     total cpu time spent up to now is       17.4 secs

     total energy              =    -339.49888894 Ry
     estimated scf accuracy    <       0.03513824 Ry

     total magnetization       =     0.87 Bohr mag/cell
     absolute magnetization    =     1.03 Bohr mag/cell

     iteration # 12     ecut=    60.00 Ry     beta= 0.70
     Davidson diagonalization with overlap
     ethr =  1.95E-04,  avg # of iterations =  1.5

     total cpu time spent up to now is       18.6 secs

     total energy              =    -339.49820396 Ry
     estimated scf accuracy    <       0.05562805 Ry

     total magnetization       =     0.85 Bohr mag/cell
     absolute magnetization    =     0.98 Bohr mag/cell

     iteration # 13     ecut=    60.00 Ry     beta= 0.70
     Davidson diagonalization with overlap
     ethr =  1.95E-04,  avg # of iterations =  1.6

     total cpu time spent up to now is       19.8 secs

     total energy              =    -339.49931064 Ry
     estimated scf accuracy    <       0.00543609 Ry

     total magnetization       =     0.85 Bohr mag/cell
     absolute magnetization    =     0.98 Bohr mag/cell

     iteration # 14     ecut=    60.00 Ry     beta= 0.70
     Davidson diagonalization with overlap
     ethr =  3.02E-05,  avg # of iterations =  1.6

     total cpu time spent up to now is       21.1 secs

     total energy              =    -339.49963404 Ry
     estimated scf accuracy    <       0.01233143 Ry

     total magnetization       =     0.86 Bohr mag/cell
     absolute magnetization    =     0.99 Bohr mag/cell

     iteration # 15     ecut=    60.00 Ry     beta= 0.70
     Davidson diagonalization with overlap
     ethr =  3.02E-05,  avg # of iterations =  1.0

     total cpu time spent up to now is       22.2 secs

     total energy              =    -339.49985515 Ry
     estimated scf accuracy    <       0.00066323 Ry

     total magnetization       =     0.86 Bohr mag/cell
     absolute magnetization    =     0.97 Bohr mag/cell

     iteration # 16     ecut=    60.00 Ry     beta= 0.70
     Davidson diagonalization with overlap
     ethr =  3.68E-06,  avg # of iterations =  1.4

     total cpu time spent up to now is       23.3 secs

     total energy              =    -339.49986653 Ry
     estimated scf accuracy    <       0.00011110 Ry

     total magnetization       =     0.86 Bohr mag/cell
     absolute magnetization    =     0.98 Bohr mag/cell

     iteration # 17     ecut=    60.00 Ry     beta= 0.70
     Davidson diagonalization with overlap
     ethr =  6.17E-07,  avg # of iterations =  1.6

     total cpu time spent up to now is       24.6 secs

     total energy              =    -339.49987181 Ry
     estimated scf accuracy    <       0.00007638 Ry

     total magnetization       =     0.86 Bohr mag/cell
     absolute magnetization    =     0.98 Bohr mag/cell

     iteration # 18     ecut=    60.00 Ry     beta= 0.70
     Davidson diagonalization with overlap
     ethr =  4.24E-07,  avg # of iterations =  1.2

     total cpu time spent up to now is       25.7 secs

     total energy              =    -339.49987460 Ry
     estimated scf accuracy    <       0.00000837 Ry

     total magnetization       =     0.86 Bohr mag/cell
     absolute magnetization    =     0.98 Bohr mag/cell

     iteration # 19     ecut=    60.00 Ry     beta= 0.70
     Davidson diagonalization with overlap
     ethr =  4.65E-08,  avg # of iterations =  1.8

     total cpu time spent up to now is       26.9 secs

     total energy              =    -339.49987385 Ry
     estimated scf accuracy    <       0.00004981 Ry

     total magnetization       =     0.86 Bohr mag/cell
     absolute magnetization    =     0.99 Bohr mag/cell

     iteration # 20     ecut=    60.00 Ry     beta= 0.70
     Davidson diagonalization with overlap
     ethr =  4.65E-08,  avg # of iterations =  2.0

     total cpu time spent up to now is       28.2 secs

     total energy              =    -339.49987464 Ry
     estimated scf accuracy    <       0.00000461 Ry

     total magnetization       =     0.86 Bohr mag/cell
     absolute magnetization    =     0.99 Bohr mag/cell

     iteration # 21     ecut=    60.00 Ry     beta= 0.70
     Davidson diagonalization with overlap
     ethr =  2.56E-08,  avg # of iterations =  1.0

     total cpu time spent up to now is       29.3 secs

     total energy              =    -339.49987461 Ry
     estimated scf accuracy    <       0.00000720 Ry

     total magnetization       =     0.86 Bohr mag/cell
     absolute magnetization    =     0.99 Bohr mag/cell

     iteration # 22     ecut=    60.00 Ry     beta= 0.70
     Davidson diagonalization with overlap
     ethr =  2.56E-08,  avg # of iterations =  1.0

     total cpu time spent up to now is       30.4 secs

     total energy              =    -339.49987459 Ry
     estimated scf accuracy    <       0.00000523 Ry

     total magnetization       =     0.86 Bohr mag/cell
     absolute magnetization    =     0.99 Bohr mag/cell

     iteration # 23     ecut=    60.00 Ry     beta= 0.70
     Davidson diagonalization with overlap
     ethr =  2.56E-08,  avg # of iterations =  1.0

     total cpu time spent up to now is       31.4 secs

     total energy              =    -339.49987458 Ry
     estimated scf accuracy    <       0.00000220 Ry

     total magnetization       =     0.86 Bohr mag/cell
     absolute magnetization    =     0.99 Bohr mag/cell

     iteration # 24     ecut=    60.00 Ry     beta= 0.70
     Davidson diagonalization with overlap
     ethr =  1.22E-08,  avg # of iterations =  1.0

     Magnetic moment per site  (integrated on atomic sphere of radius R)
     atom   1 (R=0.412)  charge= 16.1050  magn=  0.9191

     total cpu time spent up to now is       32.5 secs

     End of self-consistent calculation

     Number of k-points >= 100: set verbosity='high' to print the bands.

     the Fermi energy is     9.7646 ev

!    total energy              =    -339.49987468 Ry
     estimated scf accuracy    <       0.00000016 Ry
     smearing contrib. (-TS)   =       0.00023407 Ry
     internal energy E=F+TS    =    -339.50010875 Ry

     The total energy is F=E-TS. E is the sum of the following terms:
     one-electron contribution =    -273.33869913 Ry
     hartree contribution      =     142.79464318 Ry
     xc contribution           =     -34.26434954 Ry
     ewald contribution        =    -174.69170327 Ry

     total magnetization       =     0.86 Bohr mag/cell
     absolute magnetization    =     0.99 Bohr mag/cell

     convergence has been achieved in  24 iterations

     Forces acting on atoms (cartesian axes, Ry/au):

     atom    1 type  1   force =     0.00000000    0.00000000    0.00000000

     Total force =     0.000000     Total SCF correction =     0.000324


     Computing stress (Cartesian axis) and pressure

          total   stress  (Ry/bohr**3)                   (kbar)     P=        8.01
   0.00051810   0.00048648   0.00000944           76.22       71.56        1.39
   0.00048648   0.00033978   0.00000794           71.56       49.98        1.17
   0.00000944   0.00000794  -0.00069444            1.39        1.17     -102.16


     BFGS Geometry Optimization
     Energy error            =      0.0E+00 Ry
     Gradient error          =      0.0E+00 Ry/Bohr
     Cell gradient error     =      1.0E+02 kbar

     number of scf cycles    =   1
     number of bfgs steps    =   0

     enthalpy           new  =    -339.4998746837 Ry

     new trust radius        =       0.0381355720 bohr
     new conv_thr            =       0.0000010000 Ry

     new unit-cell volume =    115.57559 a.u.^3 (    17.12654 Ang^3 )
     density =      5.69074 g/cm^3

CELL_PARAMETERS (bohr)
   4.268920977   0.051254820   0.000994748
   0.820223084   4.189700679   0.001001793
  -1.884063238  -1.570042279   6.476456880

ATOMIC_POSITIONS (crystal)
Ni            0.0000000000        0.0000000000        0.0000000000



     Writing config-only to output data dir ./out/pwscf.save/
     NEW-OLD atomic charge density approx. for the potential

     Check: negative core charge=   -0.000001
     extrapolated charge   18.06593, renormalised to   18.00000
     Generating pointlists ...

     total cpu time spent up to now is       33.1 secs

     Self-consistent Calculation

     iteration #  1     ecut=    60.00 Ry     beta= 0.70
     Davidson diagonalization with overlap
     ethr =  1.00E-06,  avg # of iterations =  7.6

     total cpu time spent up to now is       36.3 secs

     total energy              =    -339.46329061 Ry
     estimated scf accuracy    <       0.05399203 Ry

     total magnetization       =     0.98 Bohr mag/cell
     absolute magnetization    =     1.10 Bohr mag/cell

     iteration #  2     ecut=    60.00 Ry     beta= 0.70
     Davidson diagonalization with overlap
     ethr =  3.00E-04,  avg # of iterations =  2.8

     total cpu time spent up to now is       37.9 secs

     total energy              =    -339.54772557 Ry
     estimated scf accuracy    <       0.53777127 Ry

     total magnetization       =     0.69 Bohr mag/cell
     absolute magnetization    =     1.16 Bohr mag/cell

     iteration #  3     ecut=    60.00 Ry     beta= 0.70
     Davidson diagonalization with overlap
     ethr =  3.00E-04,  avg # of iterations =  2.0

     total cpu time spent up to now is       39.4 secs

     total energy              =    -339.26658534 Ry
     estimated scf accuracy    <      14.18632431 Ry

     total magnetization       =     0.72 Bohr mag/cell
     absolute magnetization    =     5.69 Bohr mag/cell

     iteration #  4     ecut=    60.00 Ry     beta= 0.70
     Davidson diagonalization with overlap
     ethr =  3.00E-04,  avg # of iterations =  2.4

     total cpu time spent up to now is       40.9 secs

     total energy              =    -339.50369960 Ry
     estimated scf accuracy    <       0.05569998 Ry

     total magnetization       =     0.82 Bohr mag/cell
     absolute magnetization    =     0.96 Bohr mag/cell

     iteration #  5     ecut=    60.00 Ry     beta= 0.70
     Davidson diagonalization with overlap
     ethr =  3.00E-04,  avg # of iterations =  1.0

     total cpu time spent up to now is       41.9 secs

     total energy              =    -339.50622012 Ry
     estimated scf accuracy    <       0.04019158 Ry

     total magnetization       =     0.82 Bohr mag/cell
     absolute magnetization    =     0.97 Bohr mag/cell

     iteration #  6     ecut=    60.00 Ry     beta= 0.70
     Davidson diagonalization with overlap
     ethr =  2.23E-04,  avg # of iterations =  1.0

     total cpu time spent up to now is       43.0 secs

     total energy              =    -339.50348757 Ry
     estimated scf accuracy    <       0.02832133 Ry

     total magnetization       =     0.82 Bohr mag/cell
     absolute magnetization    =     0.95 Bohr mag/cell

     iteration #  7     ecut=    60.00 Ry     beta= 0.70
     Davidson diagonalization with overlap
     ethr =  1.57E-04,  avg # of iterations =  1.0

     total cpu time spent up to now is       44.0 secs

     total energy              =    -339.50366888 Ry
     estimated scf accuracy    <       0.01206570 Ry

     total magnetization       =     0.84 Bohr mag/cell
     absolute magnetization    =     0.96 Bohr mag/cell

     iteration #  8     ecut=    60.00 Ry     beta= 0.70
     Davidson diagonalization with overlap
     ethr =  6.70E-05,  avg # of iterations =  1.0

     total cpu time spent up to now is       45.1 secs

     total energy              =    -339.50338944 Ry
     estimated scf accuracy    <       0.01889944 Ry

     total magnetization       =     0.84 Bohr mag/cell
     absolute magnetization    =     0.99 Bohr mag/cell

     iteration #  9     ecut=    60.00 Ry     beta= 0.70
     Davidson diagonalization with overlap
     ethr =  6.70E-05,  avg # of iterations =  1.0

     total cpu time spent up to now is       46.2 secs

     total energy              =    -339.50360535 Ry
     estimated scf accuracy    <       0.00276866 Ry

     total magnetization       =     0.84 Bohr mag/cell
     absolute magnetization    =     0.97 Bohr mag/cell

     iteration # 10     ecut=    60.00 Ry     beta= 0.70
     Davidson diagonalization with overlap
     ethr =  1.54E-05,  avg # of iterations =  1.0

     total cpu time spent up to now is       47.2 secs

     total energy              =    -339.50305585 Ry
     estimated scf accuracy    <       0.00232718 Ry

     total magnetization       =     0.84 Bohr mag/cell
     absolute magnetization    =     0.97 Bohr mag/cell

     iteration # 11     ecut=    60.00 Ry     beta= 0.70
     Davidson diagonalization with overlap
     ethr =  1.29E-05,  avg # of iterations =  1.0

     total cpu time spent up to now is       48.3 secs

     total energy              =    -339.50325249 Ry
     estimated scf accuracy    <       0.00085721 Ry

     total magnetization       =     0.86 Bohr mag/cell
     absolute magnetization    =     0.98 Bohr mag/cell

     iteration # 12     ecut=    60.00 Ry     beta= 0.70
     Davidson diagonalization with overlap
     ethr =  4.76E-06,  avg # of iterations =  1.0

     total cpu time spent up to now is       49.4 secs

     total energy              =    -339.50328006 Ry
     estimated scf accuracy    <       0.00001549 Ry

     total magnetization       =     0.86 Bohr mag/cell
     absolute magnetization    =     0.98 Bohr mag/cell

     iteration # 13     ecut=    60.00 Ry     beta= 0.70
     Davidson diagonalization with overlap
     ethr =  8.61E-08,  avg # of iterations =  2.1

     total cpu time spent up to now is       50.7 secs

     total energy              =    -339.50328209 Ry
     estimated scf accuracy    <       0.00000502 Ry

     total magnetization       =     0.86 Bohr mag/cell
     absolute magnetization    =     0.98 Bohr mag/cell

     iteration # 14     ecut=    60.00 Ry     beta= 0.70
     Davidson diagonalization with overlap
     ethr =  2.79E-08,  avg # of iterations =  1.4

     total cpu time spent up to now is       51.9 secs

     total energy              =    -339.50328240 Ry
     estimated scf accuracy    <       0.00000116 Ry

     total magnetization       =     0.86 Bohr mag/cell
     absolute magnetization    =     0.98 Bohr mag/cell

     iteration # 15     ecut=    60.00 Ry     beta= 0.70
     Davidson diagonalization with overlap
     ethr =  6.45E-09,  avg # of iterations =  2.1

     total cpu time spent up to now is       53.3 secs

     total energy              =    -339.50328276 Ry
     estimated scf accuracy    <       0.00002213 Ry

     total magnetization       =     0.86 Bohr mag/cell
     absolute magnetization    =     0.98 Bohr mag/cell

     iteration # 16     ecut=    60.00 Ry     beta= 0.70
     Davidson diagonalization with overlap
     ethr =  6.45E-09,  avg # of iterations =  1.0

     total cpu time spent up to now is       54.3 secs

     total energy              =    -339.50328186 Ry
     estimated scf accuracy    <       0.00002329 Ry

     total magnetization       =     0.86 Bohr mag/cell
     absolute magnetization    =     0.98 Bohr mag/cell

     iteration # 17     ecut=    60.00 Ry     beta= 0.70
     Davidson diagonalization with overlap
     ethr =  6.45E-09,  avg # of iterations =  2.0

     total cpu time spent up to now is       55.7 secs

     total energy              =    -339.50328247 Ry
     estimated scf accuracy    <       0.00000204 Ry

     total magnetization       =     0.86 Bohr mag/cell
     absolute magnetization    =     0.98 Bohr mag/cell

     iteration # 18     ecut=    60.00 Ry     beta= 0.70
     Davidson diagonalization with overlap
     ethr =  6.45E-09,  avg # of iterations =  1.0

     total cpu time spent up to now is       56.7 secs

     total energy              =    -339.50328240 Ry
     estimated scf accuracy    <       0.00000295 Ry

     total magnetization       =     0.86 Bohr mag/cell
     absolute magnetization    =     0.98 Bohr mag/cell

     iteration # 19     ecut=    60.00 Ry     beta= 0.70
     Davidson diagonalization with overlap
     ethr =  6.45E-09,  avg # of iterations =  1.4

     Magnetic moment per site  (integrated on atomic sphere of radius R)
     atom   1 (R=0.412)  charge= 16.0854  magn=  0.9144

     total cpu time spent up to now is       57.9 secs

     End of self-consistent calculation

     Number of k-points >= 100: set verbosity='high' to print the bands.

     the Fermi energy is     9.7202 ev

!    total energy              =    -339.50328254 Ry
     estimated scf accuracy    <       0.00000037 Ry
     smearing contrib. (-TS)   =       0.00015051 Ry
     internal energy E=F+TS    =    -339.50343305 Ry

     The total energy is F=E-TS. E is the sum of the following terms:
     one-electron contribution =    -269.82472559 Ry
     hartree contribution      =     141.02990911 Ry
     xc contribution           =     -34.25021451 Ry
     ewald contribution        =    -176.45840207 Ry

     total magnetization       =     0.86 Bohr mag/cell
     absolute magnetization    =     0.98 Bohr mag/cell

     convergence has been achieved in  19 iterations

     Forces acting on atoms (cartesian axes, Ry/au):

     atom    1 type  1   force =     0.00000000    0.00000000    0.00000000

     Total force =     0.000000     Total SCF correction =     0.000685


     Computing stress (Cartesian axis) and pressure

          total   stress  (Ry/bohr**3)                   (kbar)     P=      -34.73
   0.00011809   0.00045012   0.00000433           17.37       66.22        0.64
   0.00045012  -0.00004692   0.00000347           66.22       -6.90        0.51
   0.00000433   0.00000347  -0.00077943            0.64        0.51     -114.66

     Energy error            =      3.4E-03 Ry
     Gradient error          =      0.0E+00 Ry/Bohr
     Cell gradient error     =      1.1E+02 kbar

     number of scf cycles    =   2
     number of bfgs steps    =   1

     enthalpy           old  =    -339.4998746837 Ry
     enthalpy           new  =    -339.5032825406 Ry

     CASE: enthalpy          _new < enthalpy          _old

     new trust radius        =       0.0569908241 bohr
     new conv_thr            =       0.0000000010 Ry

     new unit-cell volume =    114.07612 a.u.^3 (    16.90434 Ang^3 )
     density =      5.76554 g/cm^3

CELL_PARAMETERS (bohr)
   4.312279170   0.119270344   0.001976112
   0.894942296   4.220088874   0.001977063
  -1.926294025  -1.605246822   6.304060114

ATOMIC_POSITIONS (crystal)
Ni            0.0000000000        0.0000000000        0.0000000000



     Writing config-only to output data dir ./out/pwscf.save/
     NEW-OLD atomic charge density approx. for the potential

     Check: negative core charge=   -0.000001
     extrapolated charge   17.76340, renormalised to   18.00000
     Generating pointlists ...

     total cpu time spent up to now is       58.5 secs

     Self-consistent Calculation

     iteration #  1     ecut=    60.00 Ry     beta= 0.70
     Davidson diagonalization with overlap
     ethr =  1.00E-06,  avg # of iterations =  8.2

     total cpu time spent up to now is       62.0 secs

     total energy              =    -339.06049425 Ry
     estimated scf accuracy    <       0.58455006 Ry

     total magnetization       =     0.45 Bohr mag/cell
     absolute magnetization    =     0.56 Bohr mag/cell

     iteration #  2     ecut=    60.00 Ry     beta= 0.70
     Davidson diagonalization with overlap
     ethr =  3.25E-03,  avg # of iterations =  2.9

     total cpu time spent up to now is       63.6 secs

     total energy              =    -339.43895802 Ry
     estimated scf accuracy    <       3.50284076 Ry

     total magnetization       =     0.86 Bohr mag/cell
     absolute magnetization    =     1.33 Bohr mag/cell

     iteration #  3     ecut=    60.00 Ry     beta= 0.70
     Davidson diagonalization with overlap
     ethr =  3.25E-03,  avg # of iterations =  2.0

     total cpu time spent up to now is       65.0 secs

     total energy              =    -339.12935239 Ry
     estimated scf accuracy    <      24.32852082 Ry

     total magnetization       =     0.77 Bohr mag/cell
     absolute magnetization    =     7.43 Bohr mag/cell

     iteration #  4     ecut=    60.00 Ry     beta= 0.70
     Davidson diagonalization with overlap
     ethr =  3.25E-03,  avg # of iterations =  2.0

     total cpu time spent up to now is       66.4 secs

     total energy              =    -339.53166413 Ry
     estimated scf accuracy    <       0.36023692 Ry

     total magnetization       =     0.88 Bohr mag/cell
     absolute magnetization    =     0.98 Bohr mag/cell

     iteration #  5     ecut=    60.00 Ry     beta= 0.70
     Davidson diagonalization with overlap
     ethr =  2.00E-03,  avg # of iterations =  1.0

     total cpu time spent up to now is       67.4 secs

     total energy              =    -339.53672145 Ry
     estimated scf accuracy    <       0.28689652 Ry

     total magnetization       =     0.87 Bohr mag/cell
     absolute magnetization    =     1.03 Bohr mag/cell

     iteration #  6     ecut=    60.00 Ry     beta= 0.70
     Davidson diagonalization with overlap
     ethr =  1.59E-03,  avg # of iterations =  1.0

     total cpu time spent up to now is       68.5 secs

     total energy              =    -339.50302824 Ry
     estimated scf accuracy    <       0.63209686 Ry

     total magnetization       =     0.88 Bohr mag/cell
     absolute magnetization    =     1.51 Bohr mag/cell

     iteration #  7     ecut=    60.00 Ry     beta= 0.70
     Davidson diagonalization with overlap
     ethr =  1.59E-03,  avg # of iterations =  1.0

     total cpu time spent up to now is       69.6 secs

     total energy              =    -339.51539508 Ry
     estimated scf accuracy    <       0.07038865 Ry

     total magnetization       =     0.89 Bohr mag/cell
     absolute magnetization    =     0.99 Bohr mag/cell

     iteration #  8     ecut=    60.00 Ry     beta= 0.70
     Davidson diagonalization with overlap
     ethr =  3.91E-04,  avg # of iterations =  1.0

     total cpu time spent up to now is       70.6 secs

     total energy              =    -339.51513677 Ry
     estimated scf accuracy    <       0.08335713 Ry

     total magnetization       =     0.89 Bohr mag/cell
     absolute magnetization    =     1.03 Bohr mag/cell

     iteration #  9     ecut=    60.00 Ry     beta= 0.70
     Davidson diagonalization with overlap
     ethr =  3.91E-04,  avg # of iterations =  1.0

     total cpu time spent up to now is       71.7 secs

     total energy              =    -339.51344061 Ry
     estimated scf accuracy    <       0.06109723 Ry

     total magnetization       =     0.89 Bohr mag/cell
     absolute magnetization    =     1.00 Bohr mag/cell

     iteration # 10     ecut=    60.00 Ry     beta= 0.70
     Davidson diagonalization with overlap
     ethr =  3.39E-04,  avg # of iterations =  1.0

     total cpu time spent up to now is       72.8 secs

     total energy              =    -339.50233831 Ry
     estimated scf accuracy    <       0.04488858 Ry

     total magnetization       =     0.90 Bohr mag/cell
     absolute magnetization    =     1.01 Bohr mag/cell

     iteration # 11     ecut=    60.00 Ry     beta= 0.70
     Davidson diagonalization with overlap
     ethr =  2.49E-04,  avg # of iterations =  1.1

     total cpu time spent up to now is       73.9 secs

     total energy              =    -339.50697979 Ry
     estimated scf accuracy    <       0.00551128 Ry

     total magnetization       =     0.88 Bohr mag/cell
     absolute magnetization    =     1.01 Bohr mag/cell

     iteration # 12     ecut=    60.00 Ry     beta= 0.70
     Davidson diagonalization with overlap
     ethr =  3.06E-05,  avg # of iterations =  1.2

     total cpu time spent up to now is       75.0 secs

     total energy              =    -339.50721684 Ry
     estimated scf accuracy    <       0.00128556 Ry

     total magnetization       =     0.87 Bohr mag/cell
     absolute magnetization    =     1.00 Bohr mag/cell

     iteration # 13     ecut=    60.00 Ry     beta= 0.70
     Davidson diagonalization with overlap
     ethr =  7.14E-06,  avg # of iterations =  1.5

     total cpu time spent up to now is       76.3 secs

     total energy              =    -339.50721978 Ry
     estimated scf accuracy    <       0.00255270 Ry

     total magnetization       =     0.87 Bohr mag/cell
     absolute magnetization    =     0.99 Bohr mag/cell

     iteration # 14     ecut=    60.00 Ry     beta= 0.70
     Davidson diagonalization with overlap
     ethr =  7.14E-06,  avg # of iterations =  1.0

     total cpu time spent up to now is       77.3 secs

     total energy              =    -339.50726887 Ry
     estimated scf accuracy    <       0.00071051 Ry

     total magnetization       =     0.85 Bohr mag/cell
     absolute magnetization    =     0.97 Bohr mag/cell

     iteration # 15     ecut=    60.00 Ry     beta= 0.70
     Davidson diagonalization with overlap
     ethr =  3.95E-06,  avg # of iterations =  1.0

     total cpu time spent up to now is       78.4 secs

     total energy              =    -339.50727649 Ry
     estimated scf accuracy    <       0.00030620 Ry

     total magnetization       =     0.85 Bohr mag/cell
     absolute magnetization    =     0.97 Bohr mag/cell

     iteration # 16     ecut=    60.00 Ry     beta= 0.70
     Davidson diagonalization with overlap
     ethr =  1.70E-06,  avg # of iterations =  1.0

     total cpu time spent up to now is       79.5 secs

     total energy              =    -339.50729484 Ry
     estimated scf accuracy    <       0.00031871 Ry

     total magnetization       =     0.85 Bohr mag/cell
     absolute magnetization    =     0.97 Bohr mag/cell

     iteration # 17     ecut=    60.00 Ry     beta= 0.70
     Davidson diagonalization with overlap
     ethr =  1.70E-06,  avg # of iterations =  2.0

     total cpu time spent up to now is       80.7 secs

     total energy              =    -339.50722797 Ry
     estimated scf accuracy    <       0.00275622 Ry

     total magnetization       =     0.85 Bohr mag/cell
     absolute magnetization    =     0.97 Bohr mag/cell

     iteration # 18     ecut=    60.00 Ry     beta= 0.70
     Davidson diagonalization with overlap
     ethr =  1.70E-06,  avg # of iterations =  2.0

     total cpu time spent up to now is       82.0 secs

     total energy              =    -339.50728314 Ry
     estimated scf accuracy    <       0.00002823 Ry

     total magnetization       =     0.86 Bohr mag/cell
     absolute magnetization    =     0.98 Bohr mag/cell

     iteration # 19     ecut=    60.00 Ry     beta= 0.70
     Davidson diagonalization with overlap
     ethr =  1.57E-07,  avg # of iterations =  1.5

     total cpu time spent up to now is       83.3 secs

     total energy              =    -339.50728539 Ry
     estimated scf accuracy    <       0.00031878 Ry

     total magnetization       =     0.86 Bohr mag/cell
     absolute magnetization    =     0.98 Bohr mag/cell

     iteration # 20     ecut=    60.00 Ry     beta= 0.70
     Davidson diagonalization with overlap
     ethr =  1.57E-07,  avg # of iterations =  1.0

     total cpu time spent up to now is       84.4 secs

     total energy              =    -339.50728709 Ry
     estimated scf accuracy    <       0.00033526 Ry

     total magnetization       =     0.86 Bohr mag/cell
     absolute magnetization    =     0.98 Bohr mag/cell

     iteration # 21     ecut=    60.00 Ry     beta= 0.70
     Davidson diagonalization with overlap
     ethr =  1.57E-07,  avg # of iterations =  1.0

     total cpu time spent up to now is       85.4 secs

     total energy              =    -339.50728271 Ry
     estimated scf accuracy    <       0.00052375 Ry

     total magnetization       =     0.86 Bohr mag/cell
     absolute magnetization    =     0.98 Bohr mag/cell

     iteration # 22     ecut=    60.00 Ry     beta= 0.70
     Davidson diagonalization with overlap
     ethr =  1.57E-07,  avg # of iterations =  1.5

     total cpu time spent up to now is       86.8 secs

     total energy              =    -339.50727591 Ry
     estimated scf accuracy    <       0.00044746 Ry

     total magnetization       =     0.86 Bohr mag/cell
     absolute magnetization    =     0.98 Bohr mag/cell

     iteration # 23     ecut=    60.00 Ry     beta= 0.70
     Davidson diagonalization with overlap
     ethr =  1.57E-07,  avg # of iterations =  1.5

     total cpu time spent up to now is       88.1 secs

     total energy              =    -339.50728097 Ry
     estimated scf accuracy    <       0.00003930 Ry

     total magnetization       =     0.86 Bohr mag/cell
     absolute magnetization    =     0.98 Bohr mag/cell

     iteration # 24     ecut=    60.00 Ry     beta= 0.70
     Davidson diagonalization with overlap
     ethr =  1.57E-07,  avg # of iterations =  1.2

     total cpu time spent up to now is       89.2 secs

     total energy              =    -339.50728241 Ry
     estimated scf accuracy    <       0.00000531 Ry

     total magnetization       =     0.86 Bohr mag/cell
     absolute magnetization    =     0.98 Bohr mag/cell

     iteration # 25     ecut=    60.00 Ry     beta= 0.70
     Davidson diagonalization with overlap
     ethr =  2.95E-08,  avg # of iterations =  1.0

     total cpu time spent up to now is       90.2 secs

     total energy              =    -339.50728260 Ry
     estimated scf accuracy    <       0.00000161 Ry

     total magnetization       =     0.86 Bohr mag/cell
     absolute magnetization    =     0.98 Bohr mag/cell

     iteration # 26     ecut=    60.00 Ry     beta= 0.70
     Davidson diagonalization with overlap
     ethr =  8.93E-09,  avg # of iterations =  1.0

     total cpu time spent up to now is       91.3 secs

     total energy              =    -339.50728260 Ry
     estimated scf accuracy    <       0.00000103 Ry

     total magnetization       =     0.86 Bohr mag/cell
     absolute magnetization    =     0.98 Bohr mag/cell

     iteration # 27     ecut=    60.00 Ry     beta= 0.70
     Davidson diagonalization with overlap
     ethr =  5.73E-09,  avg # of iterations =  1.1

     total cpu time spent up to now is       92.4 secs

     total energy              =    -339.50728258 Ry
     estimated scf accuracy    <       0.00000142 Ry

     total magnetization       =     0.86 Bohr mag/cell
     absolute magnetization    =     0.98 Bohr mag/cell

     iteration # 28     ecut=    60.00 Ry     beta= 0.70
     Davidson diagonalization with overlap
     ethr =  5.73E-09,  avg # of iterations =  1.5

     total cpu time spent up to now is       93.7 secs

     total energy              =    -339.50728265 Ry
     estimated scf accuracy    <       0.00000055 Ry

     total magnetization       =     0.86 Bohr mag/cell
     absolute magnetization    =     0.98 Bohr mag/cell

     iteration # 29     ecut=    60.00 Ry     beta= 0.70
     Davidson diagonalization with overlap
     ethr =  3.07E-09,  avg # of iterations =  1.0

     total cpu time spent up to now is       94.8 secs

     total energy              =    -339.50728268 Ry
     estimated scf accuracy    <       0.00000139 Ry

     total magnetization       =     0.86 Bohr mag/cell
     absolute magnetization    =     0.98 Bohr mag/cell

     iteration # 30     ecut=    60.00 Ry     beta= 0.70
     Davidson diagonalization with overlap
     ethr =  3.07E-09,  avg # of iterations =  1.5

     total cpu time spent up to now is       96.0 secs

     total energy              =    -339.50728251 Ry
     estimated scf accuracy    <       0.00000599 Ry

     total magnetization       =     0.86 Bohr mag/cell
     absolute magnetization    =     0.98 Bohr mag/cell

     iteration # 31     ecut=    60.00 Ry     beta= 0.70
     Davidson diagonalization with overlap
     ethr =  3.07E-09,  avg # of iterations =  2.0

     total cpu time spent up to now is       97.3 secs

     total energy              =    -339.50728263 Ry
     estimated scf accuracy    <       0.00000002 Ry

     total magnetization       =     0.86 Bohr mag/cell
     absolute magnetization    =     0.98 Bohr mag/cell

     iteration # 32     ecut=    60.00 Ry     beta= 0.70
     Davidson diagonalization with overlap
     ethr =  9.50E-11,  avg # of iterations =  1.0

     total cpu time spent up to now is       98.4 secs

     total energy              =    -339.50728264 Ry
     estimated scf accuracy    <       0.00000002 Ry

     total magnetization       =     0.86 Bohr mag/cell
     absolute magnetization    =     0.98 Bohr mag/cell

     iteration # 33     ecut=    60.00 Ry     beta= 0.70
     Davidson diagonalization with overlap
     ethr =  9.50E-11,  avg # of iterations =  1.0

     total cpu time spent up to now is       99.5 secs

     total energy              =    -339.50728264 Ry
     estimated scf accuracy    <          3.8E-09 Ry

     total magnetization       =     0.86 Bohr mag/cell
     absolute magnetization    =     0.98 Bohr mag/cell

     iteration # 34     ecut=    60.00 Ry     beta= 0.70
     Davidson diagonalization with overlap
     ethr =  2.12E-11,  avg # of iterations =  1.4

     total cpu time spent up to now is      100.7 secs

     total energy              =    -339.50728264 Ry
     estimated scf accuracy    <          2.6E-09 Ry

     total magnetization       =     0.86 Bohr mag/cell
     absolute magnetization    =     0.98 Bohr mag/cell

     iteration # 35     ecut=    60.00 Ry     beta= 0.70
     Davidson diagonalization with overlap
     ethr =  1.43E-11,  avg # of iterations =  1.4

     Magnetic moment per site  (integrated on atomic sphere of radius R)
     atom   1 (R=0.412)  charge= 16.0707  magn=  0.9095

     total cpu time spent up to now is      101.8 secs

     End of self-consistent calculation

     Number of k-points >= 100: set verbosity='high' to print the bands.

     the Fermi energy is     9.9184 ev

!    total energy              =    -339.50728264 Ry
     estimated scf accuracy    <          2.8E-10 Ry
     smearing contrib. (-TS)   =      -0.00001281 Ry
     internal energy E=F+TS    =    -339.50726983 Ry

     The total energy is F=E-TS. E is the sum of the following terms:
     one-electron contribution =    -264.17091430 Ry
     hartree contribution      =     138.34722017 Ry
     xc contribution           =     -34.24110213 Ry
     ewald contribution        =    -179.44247358 Ry

     total magnetization       =     0.86 Bohr mag/cell
     absolute magnetization    =     0.98 Bohr mag/cell

     convergence has been achieved in  35 iterations

     Forces acting on atoms (cartesian axes, Ry/au):

     atom    1 type  1   force =     0.00000000    0.00000000    0.00000000

     Total force =     0.000000     Total SCF correction =     0.000024


     Computing stress (Cartesian axis) and pressure

          total   stress  (Ry/bohr**3)                   (kbar)     P=      -65.70
  -0.00015269   0.00040919   0.00000714          -22.46       60.19        1.05
   0.00040919  -0.00030277   0.00000594           60.19      -44.54        0.87
   0.00000714   0.00000594  -0.00088446            1.05        0.87     -130.11

     Energy error            =      4.0E-03 Ry
     Gradient error          =      0.0E+00 Ry/Bohr
     Cell gradient error     =      1.3E+02 kbar

     number of scf cycles    =   3
     number of bfgs steps    =   2

     enthalpy           old  =    -339.5032825406 Ry
     enthalpy           new  =    -339.5072826364 Ry

     CASE: enthalpy          _new < enthalpy          _old

     new trust radius        =       0.0872421952 bohr
     new conv_thr            =       0.0000000010 Ry

     new unit-cell volume =    110.95193 a.u.^3 (    16.44138 Ang^3 )
     density =      5.92789 g/cm^3

CELL_PARAMETERS (bohr)
   4.363551024   0.214747318   0.003726847
   0.998099657   4.253305841   0.003733805
  -1.980759434  -1.650626275   6.045259681

ATOMIC_POSITIONS (crystal)
Ni            0.0000000000        0.0000000000        0.0000000000



     Writing config-only to output data dir ./out/pwscf.save/
     NEW-OLD atomic charge density approx. for the potential

     Check: negative core charge=   -0.000001
     extrapolated charge   17.49316, renormalised to   18.00000
     Generating pointlists ...

     total cpu time spent up to now is      102.4 secs

     Self-consistent Calculation

     iteration #  1     ecut=    60.00 Ry     beta= 0.70
     Davidson diagonalization with overlap
     ethr =  1.00E-06,  avg # of iterations =  8.8

     total cpu time spent up to now is      106.1 secs

     total energy              =    -337.79071289 Ry
     estimated scf accuracy    <       2.20861202 Ry

     total magnetization       =     0.06 Bohr mag/cell
     absolute magnetization    =     0.18 Bohr mag/cell

     iteration #  2     ecut=    60.00 Ry     beta= 0.70
     Davidson diagonalization with overlap
     ethr =  1.00E-02,  avg # of iterations =  3.0

     total cpu time spent up to now is      107.8 secs

     total energy              =    -339.06028303 Ry
     estimated scf accuracy    <      11.23340749 Ry

     total magnetization       =     0.22 Bohr mag/cell
     absolute magnetization    =     0.28 Bohr mag/cell

     iteration #  3     ecut=    60.00 Ry     beta= 0.70
     Davidson diagonalization with overlap
     ethr =  1.00E-02,  avg # of iterations =  2.0

     total cpu time spent up to now is      109.1 secs

     total energy              =    -339.51054428 Ry
     estimated scf accuracy    <       1.49481109 Ry

     total magnetization       =     0.72 Bohr mag/cell
     absolute magnetization    =     0.78 Bohr mag/cell

     iteration #  4     ecut=    60.00 Ry     beta= 0.70
     Davidson diagonalization with overlap
     ethr =  8.30E-03,  avg # of iterations =  1.5

     total cpu time spent up to now is      110.3 secs

     total energy              =    -339.48323795 Ry
     estimated scf accuracy    <       2.82845905 Ry

     total magnetization       =     0.76 Bohr mag/cell
     absolute magnetization    =     2.62 Bohr mag/cell

     iteration #  5     ecut=    60.00 Ry     beta= 0.70
     Davidson diagonalization with overlap
     ethr =  8.30E-03,  avg # of iterations =  1.0

     total cpu time spent up to now is      111.3 secs

     total energy              =    -339.53145106 Ry
     estimated scf accuracy    <       0.23874805 Ry

     total magnetization       =     0.77 Bohr mag/cell
     absolute magnetization    =     0.83 Bohr mag/cell

     iteration #  6     ecut=    60.00 Ry     beta= 0.70
     Davidson diagonalization with overlap
     ethr =  1.33E-03,  avg # of iterations =  1.0

     total cpu time spent up to now is      112.4 secs

     total energy              =    -339.53086242 Ry
     estimated scf accuracy    <       0.35496411 Ry

     total magnetization       =     0.80 Bohr mag/cell
     absolute magnetization    =     1.18 Bohr mag/cell

     iteration #  7     ecut=    60.00 Ry     beta= 0.70
     Davidson diagonalization with overlap
     ethr =  1.33E-03,  avg # of iterations =  1.0

     total cpu time spent up to now is      113.5 secs

     total energy              =    -339.53009911 Ry
     estimated scf accuracy    <       0.18432718 Ry

     total magnetization       =     0.80 Bohr mag/cell
     absolute magnetization    =     0.92 Bohr mag/cell

     iteration #  8     ecut=    60.00 Ry     beta= 0.70
     Davidson diagonalization with overlap
     ethr =  1.02E-03,  avg # of iterations =  1.0

     total cpu time spent up to now is      114.6 secs

     total energy              =    -339.52644382 Ry
     estimated scf accuracy    <       0.13169171 Ry

     total magnetization       =     0.81 Bohr mag/cell
     absolute magnetization    =     0.89 Bohr mag/cell

     iteration #  9     ecut=    60.00 Ry     beta= 0.70
     Davidson diagonalization with overlap
     ethr =  7.32E-04,  avg # of iterations =  1.0

     total cpu time spent up to now is      115.6 secs

     total energy              =    -339.52666480 Ry
     estimated scf accuracy    <       0.09706880 Ry

     total magnetization       =     0.86 Bohr mag/cell
     absolute magnetization    =     0.94 Bohr mag/cell

     iteration # 10     ecut=    60.00 Ry     beta= 0.70
     Davidson diagonalization with overlap
     ethr =  5.39E-04,  avg # of iterations =  1.0

     total cpu time spent up to now is      116.7 secs

     total energy              =    -339.50553801 Ry
     estimated scf accuracy    <       0.09578735 Ry

     total magnetization       =     0.86 Bohr mag/cell
     absolute magnetization    =     0.95 Bohr mag/cell

     iteration # 11     ecut=    60.00 Ry     beta= 0.70
     Davidson diagonalization with overlap
     ethr =  5.32E-04,  avg # of iterations =  1.0

     total cpu time spent up to now is      117.8 secs

     total energy              =    -339.51246969 Ry
     estimated scf accuracy    <       0.02255470 Ry

     total magnetization       =     0.86 Bohr mag/cell
     absolute magnetization    =     0.99 Bohr mag/cell

     iteration # 12     ecut=    60.00 Ry     beta= 0.70
     Davidson diagonalization with overlap
     ethr =  1.25E-04,  avg # of iterations =  1.0

     total cpu time spent up to now is      118.8 secs

     total energy              =    -339.51318138 Ry
     estimated scf accuracy    <       0.00334855 Ry

     total magnetization       =     0.82 Bohr mag/cell
     absolute magnetization    =     0.93 Bohr mag/cell

     iteration # 13     ecut=    60.00 Ry     beta= 0.70
     Davidson diagonalization with overlap
     ethr =  1.86E-05,  avg # of iterations =  1.8

     total cpu time spent up to now is      120.1 secs

     total energy              =    -339.51329620 Ry
     estimated scf accuracy    <       0.00539314 Ry

     total magnetization       =     0.83 Bohr mag/cell
     absolute magnetization    =     0.94 Bohr mag/cell

     iteration # 14     ecut=    60.00 Ry     beta= 0.70
     Davidson diagonalization with overlap
     ethr =  1.86E-05,  avg # of iterations =  1.4

     total cpu time spent up to now is      121.3 secs

     total energy              =    -339.51341262 Ry
     estimated scf accuracy    <       0.00317198 Ry

     total magnetization       =     0.82 Bohr mag/cell
     absolute magnetization    =     0.93 Bohr mag/cell

     iteration # 15     ecut=    60.00 Ry     beta= 0.70
     Davidson diagonalization with overlap
     ethr =  1.76E-05,  avg # of iterations =  1.0

     total cpu time spent up to now is      122.4 secs

     total energy              =    -339.51339504 Ry
     estimated scf accuracy    <       0.00187062 Ry

     total magnetization       =     0.83 Bohr mag/cell
     absolute magnetization    =     0.94 Bohr mag/cell

     iteration # 16     ecut=    60.00 Ry     beta= 0.70
     Davidson diagonalization with overlap
     ethr =  1.04E-05,  avg # of iterations =  1.0

     total cpu time spent up to now is      123.5 secs

     total energy              =    -339.51343705 Ry
     estimated scf accuracy    <       0.00069399 Ry

     total magnetization       =     0.84 Bohr mag/cell
     absolute magnetization    =     0.95 Bohr mag/cell

     iteration # 17     ecut=    60.00 Ry     beta= 0.70
     Davidson diagonalization with overlap
     ethr =  3.86E-06,  avg # of iterations =  1.1

     total cpu time spent up to now is      124.6 secs

     total energy              =    -339.51341589 Ry
     estimated scf accuracy    <       0.00115944 Ry

     total magnetization       =     0.84 Bohr mag/cell
     absolute magnetization    =     0.95 Bohr mag/cell

     iteration # 18     ecut=    60.00 Ry     beta= 0.70
     Davidson diagonalization with overlap
     ethr =  3.86E-06,  avg # of iterations =  1.0

     total cpu time spent up to now is      125.6 secs

     total energy              =    -339.51342530 Ry
     estimated scf accuracy    <       0.00045375 Ry

     total magnetization       =     0.84 Bohr mag/cell
     absolute magnetization    =     0.95 Bohr mag/cell

     iteration # 19     ecut=    60.00 Ry     beta= 0.70
     Davidson diagonalization with overlap
     ethr =  2.52E-06,  avg # of iterations =  1.0

     total cpu time spent up to now is      126.7 secs

     total energy              =    -339.51343030 Ry
     estimated scf accuracy    <       0.00014067 Ry

     total magnetization       =     0.84 Bohr mag/cell
     absolute magnetization    =     0.95 Bohr mag/cell

     iteration # 20     ecut=    60.00 Ry     beta= 0.70
     Davidson diagonalization with overlap
     ethr =  7.81E-07,  avg # of iterations =  2.0

     total cpu time spent up to now is      128.0 secs

     total energy              =    -339.51345951 Ry
     estimated scf accuracy    <       0.00113867 Ry

     total magnetization       =     0.84 Bohr mag/cell
     absolute magnetization    =     0.96 Bohr mag/cell

     iteration # 21     ecut=    60.00 Ry     beta= 0.70
     Davidson diagonalization with overlap
     ethr =  7.81E-07,  avg # of iterations =  1.0

     total cpu time spent up to now is      129.1 secs

     total energy              =    -339.51343998 Ry
     estimated scf accuracy    <       0.00157540 Ry

     total magnetization       =     0.84 Bohr mag/cell
     absolute magnetization    =     0.96 Bohr mag/cell

     iteration # 22     ecut=    60.00 Ry     beta= 0.70
     Davidson diagonalization with overlap
     ethr =  7.81E-07,  avg # of iterations =  1.0

     total cpu time spent up to now is      130.1 secs

     total energy              =    -339.51342797 Ry
     estimated scf accuracy    <       0.00085518 Ry

     total magnetization       =     0.84 Bohr mag/cell
     absolute magnetization    =     0.96 Bohr mag/cell

     iteration # 23     ecut=    60.00 Ry     beta= 0.70
     Davidson diagonalization with overlap
     ethr =  7.81E-07,  avg # of iterations =  1.7

     total cpu time spent up to now is      131.3 secs

     total energy              =    -339.51343634 Ry
     estimated scf accuracy    <       0.00010730 Ry

     total magnetization       =     0.84 Bohr mag/cell
     absolute magnetization    =     0.96 Bohr mag/cell

     iteration # 24     ecut=    60.00 Ry     beta= 0.70
     Davidson diagonalization with overlap
     ethr =  5.96E-07,  avg # of iterations =  1.4

     total cpu time spent up to now is      132.5 secs

     total energy              =    -339.51344079 Ry
     estimated scf accuracy    <       0.00002491 Ry

     total magnetization       =     0.84 Bohr mag/cell
     absolute magnetization    =     0.95 Bohr mag/cell

     iteration # 25     ecut=    60.00 Ry     beta= 0.70
     Davidson diagonalization with overlap
     ethr =  1.38E-07,  avg # of iterations =  1.5

     total cpu time spent up to now is      133.8 secs

     total energy              =    -339.51344184 Ry
     estimated scf accuracy    <       0.00004583 Ry

     total magnetization       =     0.84 Bohr mag/cell
     absolute magnetization    =     0.95 Bohr mag/cell

     iteration # 26     ecut=    60.00 Ry     beta= 0.70
     Davidson diagonalization with overlap
     ethr =  1.38E-07,  avg # of iterations =  1.0

     total cpu time spent up to now is      134.9 secs

     total energy              =    -339.51344239 Ry
     estimated scf accuracy    <       0.00000772 Ry

     total magnetization       =     0.84 Bohr mag/cell
     absolute magnetization    =     0.95 Bohr mag/cell

     iteration # 27     ecut=    60.00 Ry     beta= 0.70
     Davidson diagonalization with overlap
     ethr =  4.29E-08,  avg # of iterations =  1.0

     total cpu time spent up to now is      136.0 secs

     total energy              =    -339.51344250 Ry
     estimated scf accuracy    <       0.00001496 Ry

     total magnetization       =     0.84 Bohr mag/cell
     absolute magnetization    =     0.95 Bohr mag/cell

     iteration # 28     ecut=    60.00 Ry     beta= 0.70
     Davidson diagonalization with overlap
     ethr =  4.29E-08,  avg # of iterations =  1.0

     total cpu time spent up to now is      137.0 secs

     total energy              =    -339.51344190 Ry
     estimated scf accuracy    <       0.00002051 Ry

     total magnetization       =     0.84 Bohr mag/cell
     absolute magnetization    =     0.95 Bohr mag/cell

     iteration # 29     ecut=    60.00 Ry     beta= 0.70
     Davidson diagonalization with overlap
     ethr =  4.29E-08,  avg # of iterations =  1.4

     total cpu time spent up to now is      138.2 secs

     total energy              =    -339.51344234 Ry
     estimated scf accuracy    <       0.00000027 Ry

     total magnetization       =     0.84 Bohr mag/cell
     absolute magnetization    =     0.95 Bohr mag/cell

     iteration # 30     ecut=    60.00 Ry     beta= 0.70
     Davidson diagonalization with overlap
     ethr =  1.49E-09,  avg # of iterations =  1.0

     total cpu time spent up to now is      139.3 secs

     total energy              =    -339.51344237 Ry
     estimated scf accuracy    <       0.00000059 Ry

     total magnetization       =     0.84 Bohr mag/cell
     absolute magnetization    =     0.95 Bohr mag/cell

     iteration # 31     ecut=    60.00 Ry     beta= 0.70
     Davidson diagonalization with overlap
     ethr =  1.49E-09,  avg # of iterations =  1.0

     total cpu time spent up to now is      140.3 secs

     total energy              =    -339.51344236 Ry
     estimated scf accuracy    <       0.00000109 Ry

     total magnetization       =     0.84 Bohr mag/cell
     absolute magnetization    =     0.95 Bohr mag/cell

     iteration # 32     ecut=    60.00 Ry     beta= 0.70
     Davidson diagonalization with overlap
     ethr =  1.49E-09,  avg # of iterations =  1.0

     total cpu time spent up to now is      141.4 secs

     total energy              =    -339.51344237 Ry
     estimated scf accuracy    <       0.00000048 Ry

     total magnetization       =     0.84 Bohr mag/cell
     absolute magnetization    =     0.95 Bohr mag/cell

     iteration # 33     ecut=    60.00 Ry     beta= 0.70
     Davidson diagonalization with overlap
     ethr =  1.49E-09,  avg # of iterations =  1.0

     total cpu time spent up to now is      142.5 secs

     total energy              =    -339.51344237 Ry
     estimated scf accuracy    <       0.00000060 Ry

     total magnetization       =     0.84 Bohr mag/cell
     absolute magnetization    =     0.95 Bohr mag/cell

     iteration # 34     ecut=    60.00 Ry     beta= 0.70
     Davidson diagonalization with overlap
     ethr =  1.49E-09,  avg # of iterations =  1.0

     total cpu time spent up to now is      143.5 secs

     total energy              =    -339.51344237 Ry
     estimated scf accuracy    <       0.00000037 Ry

     total magnetization       =     0.84 Bohr mag/cell
     absolute magnetization    =     0.95 Bohr mag/cell

     iteration # 35     ecut=    60.00 Ry     beta= 0.70
     Davidson diagonalization with overlap
     ethr =  1.49E-09,  avg # of iterations =  1.0

     total cpu time spent up to now is      144.6 secs

     total energy              =    -339.51344236 Ry
     estimated scf accuracy    <       0.00000067 Ry

     total magnetization       =     0.84 Bohr mag/cell
     absolute magnetization    =     0.95 Bohr mag/cell

     iteration # 36     ecut=    60.00 Ry     beta= 0.70
     Davidson diagonalization with overlap
     ethr =  1.49E-09,  avg # of iterations =  1.0

     total cpu time spent up to now is      145.7 secs

     total energy              =    -339.51344237 Ry
     estimated scf accuracy    <       0.00000008 Ry

     total magnetization       =     0.84 Bohr mag/cell
     absolute magnetization    =     0.95 Bohr mag/cell

     iteration # 37     ecut=    60.00 Ry     beta= 0.70
     Davidson diagonalization with overlap
     ethr =  4.48E-10,  avg # of iterations =  1.0

     total cpu time spent up to now is      146.7 secs

     total energy              =    -339.51344237 Ry
     estimated scf accuracy    <       0.00000004 Ry

     total magnetization       =     0.84 Bohr mag/cell
     absolute magnetization    =     0.95 Bohr mag/cell

     iteration # 38     ecut=    60.00 Ry     beta= 0.70
     Davidson diagonalization with overlap
     ethr =  2.47E-10,  avg # of iterations =  1.7

     total cpu time spent up to now is      148.0 secs

     total energy              =    -339.51344237 Ry
     estimated scf accuracy    <       0.00000033 Ry

     total magnetization       =     0.84 Bohr mag/cell
     absolute magnetization    =     0.95 Bohr mag/cell

     iteration # 39     ecut=    60.00 Ry     beta= 0.70
     Davidson diagonalization with overlap
     ethr =  2.47E-10,  avg # of iterations =  1.9

     total cpu time spent up to now is      149.3 secs

     total energy              =    -339.51344237 Ry
     estimated scf accuracy    <       0.00000011 Ry

     total magnetization       =     0.84 Bohr mag/cell
     absolute magnetization    =     0.95 Bohr mag/cell

     iteration # 40     ecut=    60.00 Ry     beta= 0.70
     Davidson diagonalization with overlap
     ethr =  2.47E-10,  avg # of iterations =  1.5

     total cpu time spent up to now is      150.6 secs

     total energy              =    -339.51344237 Ry
     estimated scf accuracy    <       0.00000001 Ry

     total magnetization       =     0.84 Bohr mag/cell
     absolute magnetization    =     0.95 Bohr mag/cell

     iteration # 41     ecut=    60.00 Ry     beta= 0.70
     Davidson diagonalization with overlap
     ethr =  7.31E-11,  avg # of iterations =  1.1

     Magnetic moment per site  (integrated on atomic sphere of radius R)
     atom   1 (R=0.412)  charge= 16.0558  magn=  0.8854

     total cpu time spent up to now is      151.6 secs

     End of self-consistent calculation

     Number of k-points >= 100: set verbosity='high' to print the bands.

     the Fermi energy is    10.3483 ev

!    total energy              =    -339.51344237 Ry
     estimated scf accuracy    <          7.9E-10 Ry
     smearing contrib. (-TS)   =      -0.00019289 Ry
     internal energy E=F+TS    =    -339.51324948 Ry

     The total energy is F=E-TS. E is the sum of the following terms:
     one-electron contribution =    -255.73253445 Ry
     hartree contribution      =     134.43428422 Ry
     xc contribution           =     -34.23454362 Ry
     ewald contribution        =    -183.98045563 Ry

     total magnetization       =     0.84 Bohr mag/cell
     absolute magnetization    =     0.95 Bohr mag/cell

     convergence has been achieved in  41 iterations

     Forces acting on atoms (cartesian axes, Ry/au):

     atom    1 type  1   force =     0.00000000    0.00000000    0.00000000

     Total force =     0.000000     Total SCF correction =     0.000023


     Computing stress (Cartesian axis) and pressure

          total   stress  (Ry/bohr**3)                   (kbar)     P=     -122.32
  -0.00057128   0.00030989   0.00001027          -84.04       45.59        1.51
   0.00030989  -0.00068497   0.00000857           45.59     -100.76        1.26
   0.00001027   0.00000857  -0.00123830            1.51        1.26     -182.16

     Energy error            =      6.2E-03 Ry
     Gradient error          =      0.0E+00 Ry/Bohr
     Cell gradient error     =      1.8E+02 kbar

     number of scf cycles    =   4
     number of bfgs steps    =   3

     enthalpy           old  =    -339.5072826364 Ry
     enthalpy           new  =    -339.5134423728 Ry

     CASE: enthalpy          _new < enthalpy          _old


     WARNING: bfgs curvature condition failed, Theta= 0.244
     new trust radius        =       0.1345540699 bohr
     new conv_thr            =       0.0000000010 Ry

     new unit-cell volume =    105.90560 a.u.^3 (    15.69359 Ang^3 )
     density =      6.21035 g/cm^3

CELL_PARAMETERS (bohr)
   4.442360861   0.360614400   0.006358255
   1.155786836   4.304523246   0.006374733
  -2.064257860  -1.720194605   5.657055047

ATOMIC_POSITIONS (crystal)
Ni            0.0000000000        0.0000000000        0.0000000000



     Writing config-only to output data dir ./out/pwscf.save/
     NEW-OLD atomic charge density approx. for the potential

     Check: negative core charge=   -0.000002
     extrapolated charge   17.14232, renormalised to   18.00000
     Generating pointlists ...

     total cpu time spent up to now is      152.2 secs

     Self-consistent Calculation

     iteration #  1     ecut=    60.00 Ry     beta= 0.70
     Davidson diagonalization with overlap
     ethr =  1.00E-06,  avg # of iterations =  9.6

     total cpu time spent up to now is      156.2 secs

     total energy              =    -336.25506126 Ry
     estimated scf accuracy    <       4.03676144 Ry

     total magnetization       =     0.00 Bohr mag/cell
     absolute magnetization    =     0.10 Bohr mag/cell

     iteration #  2     ecut=    60.00 Ry     beta= 0.70
     Davidson diagonalization with overlap
     ethr =  1.00E-02,  avg # of iterations =  3.2

     total cpu time spent up to now is      158.0 secs

     total energy              =    -338.93492354 Ry
     estimated scf accuracy    <      18.22487654 Ry

     total magnetization       =     0.16 Bohr mag/cell
     absolute magnetization    =     0.19 Bohr mag/cell

     iteration #  3     ecut=    60.00 Ry     beta= 0.70
     Davidson diagonalization with overlap
     ethr =  1.00E-02,  avg # of iterations =  2.5

     total cpu time spent up to now is      159.5 secs

     total energy              =    -339.56220828 Ry
     estimated scf accuracy    <       2.84832152 Ry

     total magnetization       =     0.48 Bohr mag/cell
     absolute magnetization    =     0.59 Bohr mag/cell

     iteration #  4     ecut=    60.00 Ry     beta= 0.70
     Davidson diagonalization with overlap
     ethr =  1.00E-02,  avg # of iterations =  2.0

     total cpu time spent up to now is      160.7 secs

     total energy              =    -339.48498474 Ry
     estimated scf accuracy    <       5.07958292 Ry

     total magnetization       =     0.66 Bohr mag/cell
     absolute magnetization    =     3.26 Bohr mag/cell

     iteration #  5     ecut=    60.00 Ry     beta= 0.70
     Davidson diagonalization with overlap
     ethr =  1.00E-02,  avg # of iterations =  1.6

     total cpu time spent up to now is      161.9 secs

     total energy              =    -339.56471474 Ry
     estimated scf accuracy    <       0.42330044 Ry

     total magnetization       =     0.72 Bohr mag/cell
     absolute magnetization    =     0.76 Bohr mag/cell

     iteration #  6     ecut=    60.00 Ry     beta= 0.70
     Davidson diagonalization with overlap
     ethr =  2.35E-03,  avg # of iterations =  1.0

     total cpu time spent up to now is      163.0 secs

     total energy              =    -339.56902338 Ry
     estimated scf accuracy    <       0.33745045 Ry

     total magnetization       =     0.75 Bohr mag/cell
     absolute magnetization    =     0.82 Bohr mag/cell

     iteration #  7     ecut=    60.00 Ry     beta= 0.70
     Davidson diagonalization with overlap
     ethr =  1.87E-03,  avg # of iterations =  1.0

     total cpu time spent up to now is      164.0 secs

     total energy              =    -339.56566952 Ry
     estimated scf accuracy    <       0.38110887 Ry

     total magnetization       =     0.76 Bohr mag/cell
     absolute magnetization    =     0.95 Bohr mag/cell

     iteration #  8     ecut=    60.00 Ry     beta= 0.70
     Davidson diagonalization with overlap
     ethr =  1.87E-03,  avg # of iterations =  1.0

     total cpu time spent up to now is      165.1 secs

     total energy              =    -339.53957792 Ry
     estimated scf accuracy    <       0.30417095 Ry

     total magnetization       =     0.76 Bohr mag/cell
     absolute magnetization    =     0.81 Bohr mag/cell

     iteration #  9     ecut=    60.00 Ry     beta= 0.70
     Davidson diagonalization with overlap
     ethr =  1.69E-03,  avg # of iterations =  1.0

     total cpu time spent up to now is      166.2 secs

     total energy              =    -339.54114954 Ry
     estimated scf accuracy    <       0.18175780 Ry

     total magnetization       =     0.80 Bohr mag/cell
     absolute magnetization    =     0.96 Bohr mag/cell

     iteration # 10     ecut=    60.00 Ry     beta= 0.70
     Davidson diagonalization with overlap
     ethr =  1.01E-03,  avg # of iterations =  1.0

     total cpu time spent up to now is      167.2 secs

     total energy              =    -339.50288090 Ry
     estimated scf accuracy    <       0.13400142 Ry

     total magnetization       =     0.80 Bohr mag/cell
     absolute magnetization    =     0.88 Bohr mag/cell

     iteration # 11     ecut=    60.00 Ry     beta= 0.70
     Davidson diagonalization with overlap
     ethr =  7.44E-04,  avg # of iterations =  1.6

     total cpu time spent up to now is      168.5 secs

     total energy              =    -339.52182575 Ry
     estimated scf accuracy    <       0.02280417 Ry

     total magnetization       =     0.82 Bohr mag/cell
     absolute magnetization    =     0.94 Bohr mag/cell

     iteration # 12     ecut=    60.00 Ry     beta= 0.70
     Davidson diagonalization with overlap
     ethr =  1.27E-04,  avg # of iterations =  1.2

     total cpu time spent up to now is      169.6 secs

     total energy              =    -339.52275832 Ry
     estimated scf accuracy    <       0.00060220 Ry

     total magnetization       =     0.82 Bohr mag/cell
     absolute magnetization    =     0.95 Bohr mag/cell

     iteration # 13     ecut=    60.00 Ry     beta= 0.70
     Davidson diagonalization with overlap
     ethr =  3.35E-06,  avg # of iterations =  3.4

     total cpu time spent up to now is      171.2 secs

     total energy              =    -339.52282324 Ry
     estimated scf accuracy    <       0.00071436 Ry

     total magnetization       =     0.82 Bohr mag/cell
     absolute magnetization    =     0.93 Bohr mag/cell

     iteration # 14     ecut=    60.00 Ry     beta= 0.70
     Davidson diagonalization with overlap
     ethr =  3.35E-06,  avg # of iterations =  1.7

     total cpu time spent up to now is      172.5 secs

     total energy              =    -339.52289797 Ry
     estimated scf accuracy    <       0.00395433 Ry

     total magnetization       =     0.82 Bohr mag/cell
     absolute magnetization    =     0.94 Bohr mag/cell

     iteration # 15     ecut=    60.00 Ry     beta= 0.70
     Davidson diagonalization with overlap
     ethr =  3.35E-06,  avg # of iterations =  1.0

     total cpu time spent up to now is      173.5 secs

     total energy              =    -339.52276668 Ry
     estimated scf accuracy    <       0.00391578 Ry

     total magnetization       =     0.82 Bohr mag/cell
     absolute magnetization    =     0.94 Bohr mag/cell

     iteration # 16     ecut=    60.00 Ry     beta= 0.70
     Davidson diagonalization with overlap
     ethr =  3.35E-06,  avg # of iterations =  1.6

     total cpu time spent up to now is      174.9 secs

     total energy              =    -339.52286454 Ry
     estimated scf accuracy    <       0.00003122 Ry

     total magnetization       =     0.82 Bohr mag/cell
     absolute magnetization    =     0.93 Bohr mag/cell

     iteration # 17     ecut=    60.00 Ry     beta= 0.70
     Davidson diagonalization with overlap
     ethr =  1.73E-07,  avg # of iterations =  1.3

     total cpu time spent up to now is      176.0 secs

     total energy              =    -339.52286826 Ry
     estimated scf accuracy    <       0.00001734 Ry

     total magnetization       =     0.82 Bohr mag/cell
     absolute magnetization    =     0.93 Bohr mag/cell

     iteration # 18     ecut=    60.00 Ry     beta= 0.70
     Davidson diagonalization with overlap
     ethr =  9.63E-08,  avg # of iterations =  2.0

     total cpu time spent up to now is      177.3 secs

     total energy              =    -339.52287180 Ry
     estimated scf accuracy    <       0.00024465 Ry

     total magnetization       =     0.82 Bohr mag/cell
     absolute magnetization    =     0.93 Bohr mag/cell

     iteration # 19     ecut=    60.00 Ry     beta= 0.70
     Davidson diagonalization with overlap
     ethr =  9.63E-08,  avg # of iterations =  2.0

     total cpu time spent up to now is      178.6 secs

     total energy              =    -339.52283613 Ry
     estimated scf accuracy    <       0.00080531 Ry

     total magnetization       =     0.82 Bohr mag/cell
     absolute magnetization    =     0.93 Bohr mag/cell

     iteration # 20     ecut=    60.00 Ry     beta= 0.70
     Davidson diagonalization with overlap
     ethr =  9.63E-08,  avg # of iterations =  2.0

     total cpu time spent up to now is      180.0 secs

     total energy              =    -339.52286349 Ry
     estimated scf accuracy    <       0.00013529 Ry

     total magnetization       =     0.82 Bohr mag/cell
     absolute magnetization    =     0.93 Bohr mag/cell

     iteration # 21     ecut=    60.00 Ry     beta= 0.70
     Davidson diagonalization with overlap
     ethr =  9.63E-08,  avg # of iterations =  1.5

     total cpu time spent up to now is      181.2 secs

     total energy              =    -339.52286945 Ry
     estimated scf accuracy    <       0.00003349 Ry

     total magnetization       =     0.81 Bohr mag/cell
     absolute magnetization    =     0.93 Bohr mag/cell

     iteration # 22     ecut=    60.00 Ry     beta= 0.70
     Davidson diagonalization with overlap
     ethr =  9.63E-08,  avg # of iterations =  1.5

     total cpu time spent up to now is      182.5 secs

     total energy              =    -339.52287071 Ry
     estimated scf accuracy    <       0.00001711 Ry

     total magnetization       =     0.81 Bohr mag/cell
     absolute magnetization    =     0.93 Bohr mag/cell

     iteration # 23     ecut=    60.00 Ry     beta= 0.70
     Davidson diagonalization with overlap
     ethr =  9.51E-08,  avg # of iterations =  1.0

     total cpu time spent up to now is      183.5 secs

     total energy              =    -339.52287106 Ry
     estimated scf accuracy    <       0.00000228 Ry

     total magnetization       =     0.81 Bohr mag/cell
     absolute magnetization    =     0.93 Bohr mag/cell

     iteration # 24     ecut=    60.00 Ry     beta= 0.70
     Davidson diagonalization with overlap
     ethr =  1.26E-08,  avg # of iterations =  1.5

     total cpu time spent up to now is      184.9 secs

     total energy              =    -339.52287127 Ry
     estimated scf accuracy    <       0.00000519 Ry

     total magnetization       =     0.81 Bohr mag/cell
     absolute magnetization    =     0.93 Bohr mag/cell

     iteration # 25     ecut=    60.00 Ry     beta= 0.70
     Davidson diagonalization with overlap
     ethr =  1.26E-08,  avg # of iterations =  1.0

     total cpu time spent up to now is      185.9 secs

     total energy              =    -339.52287106 Ry
     estimated scf accuracy    <       0.00000620 Ry

     total magnetization       =     0.81 Bohr mag/cell
     absolute magnetization    =     0.93 Bohr mag/cell

     iteration # 26     ecut=    60.00 Ry     beta= 0.70
     Davidson diagonalization with overlap
     ethr =  1.26E-08,  avg # of iterations =  1.5

     total cpu time spent up to now is      187.2 secs

     total energy              =    -339.52287123 Ry
     estimated scf accuracy    <       0.00000015 Ry

     total magnetization       =     0.81 Bohr mag/cell
     absolute magnetization    =     0.93 Bohr mag/cell

     iteration # 27     ecut=    60.00 Ry     beta= 0.70
     Davidson diagonalization with overlap
     ethr =  8.29E-10,  avg # of iterations =  1.6

     total cpu time spent up to now is      188.5 secs

     total energy              =    -339.52287124 Ry
     estimated scf accuracy    <       0.00000027 Ry

     total magnetization       =     0.81 Bohr mag/cell
     absolute magnetization    =     0.93 Bohr mag/cell

     iteration # 28     ecut=    60.00 Ry     beta= 0.70
     Davidson diagonalization with overlap
     ethr =  8.29E-10,  avg # of iterations =  1.3

     total cpu time spent up to now is      189.6 secs

     total energy              =    -339.52287125 Ry
     estimated scf accuracy    <          2.9E-09 Ry

     total magnetization       =     0.81 Bohr mag/cell
     absolute magnetization    =     0.93 Bohr mag/cell

     iteration # 29     ecut=    60.00 Ry     beta= 0.70
     Davidson diagonalization with overlap
     ethr =  1.64E-11,  avg # of iterations =  2.0

     total cpu time spent up to now is      190.9 secs

     total energy              =    -339.52287125 Ry
     estimated scf accuracy    <       0.00000001 Ry

     total magnetization       =     0.81 Bohr mag/cell
     absolute magnetization    =     0.93 Bohr mag/cell

     iteration # 30     ecut=    60.00 Ry     beta= 0.70
     Davidson diagonalization with overlap
     ethr =  1.64E-11,  avg # of iterations =  1.0

     total cpu time spent up to now is      192.0 secs

     total energy              =    -339.52287125 Ry
     estimated scf accuracy    <       0.00000001 Ry

     total magnetization       =     0.81 Bohr mag/cell
     absolute magnetization    =     0.93 Bohr mag/cell

     iteration # 31     ecut=    60.00 Ry     beta= 0.70
     Davidson diagonalization with overlap
     ethr =  1.64E-11,  avg # of iterations =  2.0

     total cpu time spent up to now is      193.3 secs

     total energy              =    -339.52287125 Ry
     estimated scf accuracy    <       0.00000002 Ry

     total magnetization       =     0.81 Bohr mag/cell
     absolute magnetization    =     0.93 Bohr mag/cell

     iteration # 32     ecut=    60.00 Ry     beta= 0.70
     Davidson diagonalization with overlap
     ethr =  1.64E-11,  avg # of iterations =  2.0

     total cpu time spent up to now is      194.6 secs

     total energy              =    -339.52287125 Ry
     estimated scf accuracy    <       0.00000006 Ry

     total magnetization       =     0.81 Bohr mag/cell
     absolute magnetization    =     0.93 Bohr mag/cell

     iteration # 33     ecut=    60.00 Ry     beta= 0.70
     Davidson diagonalization with overlap
     ethr =  1.64E-11,  avg # of iterations =  1.9

[...]

     total cpu time spent up to now is     1108.8 secs

     total energy              =    -339.59001572 Ry
     estimated scf accuracy    <       0.00000001 Ry

     total magnetization       =    -0.00 Bohr mag/cell
     absolute magnetization    =     0.00 Bohr mag/cell

     iteration # 13     ecut=    60.00 Ry     beta= 0.70
     Davidson diagonalization with overlap
     ethr =  6.19E-11,  avg # of iterations =  1.5

     total cpu time spent up to now is     1110.0 secs

     total energy              =    -339.59001572 Ry
     estimated scf accuracy    <          4.6E-09 Ry

     total magnetization       =    -0.00 Bohr mag/cell
     absolute magnetization    =     0.00 Bohr mag/cell

     iteration # 14     ecut=    60.00 Ry     beta= 0.70
     Davidson diagonalization with overlap
     ethr =  2.57E-11,  avg # of iterations =  1.0

     Magnetic moment per site  (integrated on atomic sphere of radius R)
     atom   1 (R=0.412)  charge= 16.1438  magn= -0.0001

     total cpu time spent up to now is     1111.0 secs

     End of self-consistent calculation

     Number of k-points >= 100: set verbosity='high' to print the bands.

     the Fermi energy is    18.7073 ev

!    total energy              =    -339.59001572 Ry
     estimated scf accuracy    <          1.8E-10 Ry
     smearing contrib. (-TS)   =       0.00009176 Ry
     internal energy E=F+TS    =    -339.59010748 Ry

     The total energy is F=E-TS. E is the sum of the following terms:
     one-electron contribution =    -182.01369015 Ry
     hartree contribution      =     103.05199082 Ry
     xc contribution           =     -34.36063788 Ry
     ewald contribution        =    -226.26777028 Ry

     total magnetization       =    -0.00 Bohr mag/cell
     absolute magnetization    =     0.00 Bohr mag/cell

     convergence has been achieved in  14 iterations

     Forces acting on atoms (cartesian axes, Ry/au):

     atom    1 type  1   force =     0.00000000    0.00000000    0.00000000

     Total force =     0.000000     Total SCF correction =     0.000010


     Computing stress (Cartesian axis) and pressure

          total   stress  (Ry/bohr**3)                   (kbar)     P=        0.45
   0.00000335   0.00000041  -0.00000017            0.49        0.06       -0.02
   0.00000041   0.00000318  -0.00000015            0.06        0.47       -0.02
  -0.00000017  -0.00000015   0.00000256           -0.02       -0.02        0.38

     Energy error            =      2.1E-07 Ry
     Gradient error          =      0.0E+00 Ry/Bohr
     Cell gradient error     =      4.9E-01 kbar

     bfgs converged in  27 scf cycles and  25 bfgs steps
     (criteria: energy <  1.0E-05 Ry, force <  1.0E-04 Ry/Bohr, cell <  5.0E-01 kbar)

     End of BFGS Geometry Optimization

     Final enthalpy           =    -339.5900157216 Ry

     File ./out/pwscf.bfgs deleted, as requested
Begin final coordinates
     new unit-cell volume =     70.64541 a.u.^3 (    10.46857 Ang^3 )
     density =      9.31003 g/cm^3

CELL_PARAMETERS (bohr)
   4.456665503   0.007079040  -0.127645759
   0.810622899   4.382330126  -0.127675447
  -2.346288570  -1.955213983   3.731963462

ATOMIC_POSITIONS (crystal)
Ni            0.0000000000        0.0000000000        0.0000000000
End final coordinates



     Writing config-only to output data dir ./out/pwscf.save/

     Final scf calculation at the relaxed structure.
     The G-vectors are recalculated for the final unit cell
     Results may differ from those at the preceding step.

     Parallelization info
     --------------------
     sticks:   dense  smooth     PW     G-vecs:    dense   smooth      PW
     Min          62      30     11                 1042      368      87
     Max          63      31     12                 1044      369      90
     Sum         745     363    143                12517     4417    1063

     Using Slab Decomposition



     bravais-lattice index     =            0
     lattice parameter (alat)  =       4.2143  a.u.
     unit-cell volume          =      70.6454 (a.u.)^3
     number of atoms/cell      =            1
     number of atomic types    =            1
     number of electrons       =        18.00
     number of Kohn-Sham states=           13
     kinetic-energy cutoff     =      60.0000  Ry
     charge density cutoff     =     480.0000  Ry
     scf convergence threshold =      1.0E-09
     mixing beta               =       0.7000
     number of iterations used =            8  TF        mixing
     press convergence thresh. =      5.0E-01
     Exchange-correlation= PBE
                           (   1   4   3   4   0   0   0)

     celldm(1)=   4.214335  celldm(2)=   0.000000  celldm(3)=   0.000000
     celldm(4)=   0.000000  celldm(5)=   0.000000  celldm(6)=   0.000000

     crystal axes: (cart. coord. in units of alat)
               a(1) = (   1.057502   0.001680  -0.030288 )  
               a(2) = (   0.192349   1.039863  -0.030296 )  
               a(3) = (  -0.556740  -0.463944   0.885540 )  

     reciprocal axes: (cart. coord. in units 2 pi/alat)
               b(1) = (  0.960744 -0.162598  0.518833 )  
               b(2) = (  0.013312  0.974318  0.518825 )  
               b(3) = (  0.033316  0.027771  1.164750 )  


     PseudoPot. # 1 for Ni read from file:
     /home/jmgoff/work/automation/qe_pseudos/Ni.upf
     MD5 check sum: caf20d35bef94d268ef04de15446df97
     Pseudo is Ultrasoft + core correction, Zval = 18.0
     Generated using 'atomic' code by A. Dal Corso  v.7.1
     Using radial grid of 1195 points,  6 beta functions with: 
                l(1) =   0
                l(2) =   0
                l(3) =   1
                l(4) =   1
                l(5) =   2
                l(6) =   2
     Q(r) pseudized with 0 coefficients 


     atomic species   valence    mass     pseudopotential
        Ni            18.00    58.69340     Ni( 1.00)

     Starting magnetic structure 
     atomic species   magnetization
        Ni          -0.000

     No symmetry found



   Cartesian axes

     site n.     atom                  positions (alat units)
         1           Ni  tau(   1) = (   0.0000000   0.0000000   0.0000000  )

     number of k points=   304  Marzari-Vanderbilt smearing, width (Ry)=  0.0100

     Number of k-points >= 100: set verbosity='high' to print them.

     Dense  grid:    12517 G-vectors     FFT dimensions: (  32,  32,  36)

     Smooth grid:     4417 G-vectors     FFT dimensions: (  24,  24,  24)

     Estimated max dynamical RAM per process >       9.02 MB

     Estimated total dynamical RAM >     210.31 MB

     Check: negative core charge=   -0.000001
     Generating pointlists ...

     Initial potential from superposition of free atoms

     starting charge      17.9998, renormalised to      18.0000
     Starting wfcs are   10 randomized atomic wfcs +    3 random wfcs

     total cpu time spent up to now is     1112.0 secs

     Self-consistent Calculation

     iteration #  1     ecut=    60.00 Ry     beta= 0.70
     Davidson diagonalization with overlap
     c_bands:  1 eigenvalues not converged
     c_bands:  1 eigenvalues not converged
     ethr =  1.00E-06,  avg # of iterations = 10.5

     total cpu time spent up to now is     1115.2 secs

     total energy              =    -339.58648843 Ry
     estimated scf accuracy    <       0.00372301 Ry

     total magnetization       =    -0.00 Bohr mag/cell
     absolute magnetization    =     0.00 Bohr mag/cell

     iteration #  2     ecut=    60.00 Ry     beta= 0.70
     Davidson diagonalization with overlap
     ethr =  2.07E-05,  avg # of iterations =  1.9

     total cpu time spent up to now is     1116.1 secs

     total energy              =    -339.58675845 Ry
     estimated scf accuracy    <       0.00128914 Ry

     total magnetization       =    -0.00 Bohr mag/cell
     absolute magnetization    =     0.00 Bohr mag/cell

     iteration #  3     ecut=    60.00 Ry     beta= 0.70
     Davidson diagonalization with overlap
     ethr =  7.16E-06,  avg # of iterations =  2.0

     total cpu time spent up to now is     1117.2 secs

     total energy              =    -339.58701865 Ry
     estimated scf accuracy    <       0.00029342 Ry

     total magnetization       =    -0.00 Bohr mag/cell
     absolute magnetization    =     0.00 Bohr mag/cell

     iteration #  4     ecut=    60.00 Ry     beta= 0.70
     Davidson diagonalization with overlap
     ethr =  1.63E-06,  avg # of iterations =  1.0

     total cpu time spent up to now is     1118.1 secs

     total energy              =    -339.58704834 Ry
     estimated scf accuracy    <       0.00000946 Ry

     total magnetization       =    -0.00 Bohr mag/cell
     absolute magnetization    =     0.00 Bohr mag/cell

     iteration #  5     ecut=    60.00 Ry     beta= 0.70
     Davidson diagonalization with overlap
     ethr =  5.26E-08,  avg # of iterations =  2.0

     total cpu time spent up to now is     1119.2 secs

     total energy              =    -339.58704463 Ry
     estimated scf accuracy    <       0.00024956 Ry

     total magnetization       =    -0.00 Bohr mag/cell
     absolute magnetization    =     0.00 Bohr mag/cell

     iteration #  6     ecut=    60.00 Ry     beta= 0.70
     Davidson diagonalization with overlap
     ethr =  5.26E-08,  avg # of iterations =  2.0

     total cpu time spent up to now is     1120.2 secs

     total energy              =    -339.58705048 Ry
     estimated scf accuracy    <       0.00000179 Ry

     total magnetization       =    -0.00 Bohr mag/cell
     absolute magnetization    =     0.00 Bohr mag/cell

     iteration #  7     ecut=    60.00 Ry     beta= 0.70
     Davidson diagonalization with overlap
     ethr =  9.95E-09,  avg # of iterations =  2.0

     total cpu time spent up to now is     1121.3 secs

     total energy              =    -339.58704419 Ry
     estimated scf accuracy    <       0.00038061 Ry

     total magnetization       =    -0.00 Bohr mag/cell
     absolute magnetization    =     0.03 Bohr mag/cell

     iteration #  8     ecut=    60.00 Ry     beta= 0.70
     Davidson diagonalization with overlap
     ethr =  9.95E-09,  avg # of iterations =  2.0

     total cpu time spent up to now is     1122.4 secs

     total energy              =    -339.58705018 Ry
     estimated scf accuracy    <       0.00000347 Ry

     total magnetization       =    -0.00 Bohr mag/cell
     absolute magnetization    =     0.00 Bohr mag/cell

     iteration #  9     ecut=    60.00 Ry     beta= 0.70
     Davidson diagonalization with overlap
     ethr =  9.95E-09,  avg # of iterations =  2.0

     total cpu time spent up to now is     1123.4 secs

     total energy              =    -339.58705029 Ry
     estimated scf accuracy    <       0.00000088 Ry

     total magnetization       =    -0.00 Bohr mag/cell
     absolute magnetization    =     0.00 Bohr mag/cell

     iteration # 10     ecut=    60.00 Ry     beta= 0.70
     Davidson diagonalization with overlap
     ethr =  4.88E-09,  avg # of iterations =  1.4

     total cpu time spent up to now is     1124.4 secs

     total energy              =    -339.58705032 Ry
     estimated scf accuracy    <       0.00000058 Ry

     total magnetization       =    -0.00 Bohr mag/cell
     absolute magnetization    =     0.00 Bohr mag/cell

     iteration # 11     ecut=    60.00 Ry     beta= 0.70
     Davidson diagonalization with overlap
     ethr =  3.23E-09,  avg # of iterations =  1.0

     total cpu time spent up to now is     1125.2 secs

     total energy              =    -339.58705032 Ry
     estimated scf accuracy    <       0.00000023 Ry

     total magnetization       =    -0.00 Bohr mag/cell
     absolute magnetization    =     0.00 Bohr mag/cell

     iteration # 12     ecut=    60.00 Ry     beta= 0.70
     Davidson diagonalization with overlap
     ethr =  1.28E-09,  avg # of iterations =  1.4

     total cpu time spent up to now is     1126.2 secs

     total energy              =    -339.58705032 Ry
     estimated scf accuracy    <       0.00000024 Ry

     total magnetization       =    -0.00 Bohr mag/cell
     absolute magnetization    =     0.00 Bohr mag/cell

     iteration # 13     ecut=    60.00 Ry     beta= 0.70
     Davidson diagonalization with overlap
     ethr =  1.28E-09,  avg # of iterations =  1.0

     total cpu time spent up to now is     1127.1 secs

     total energy              =    -339.58705032 Ry
     estimated scf accuracy    <       0.00000002 Ry

     total magnetization       =    -0.00 Bohr mag/cell
     absolute magnetization    =     0.00 Bohr mag/cell

     iteration # 14     ecut=    60.00 Ry     beta= 0.70
     Davidson diagonalization with overlap
     ethr =  1.38E-10,  avg # of iterations =  2.0

     total cpu time spent up to now is     1128.1 secs

     total energy              =    -339.58705031 Ry
     estimated scf accuracy    <       0.00000018 Ry

     total magnetization       =    -0.00 Bohr mag/cell
     absolute magnetization    =     0.00 Bohr mag/cell

     iteration # 15     ecut=    60.00 Ry     beta= 0.70
     Davidson diagonalization with overlap
     ethr =  1.38E-10,  avg # of iterations =  2.0

     total cpu time spent up to now is     1129.2 secs

     total energy              =    -339.58705031 Ry
     estimated scf accuracy    <       0.00000001 Ry

     total magnetization       =    -0.00 Bohr mag/cell
     absolute magnetization    =     0.00 Bohr mag/cell

     iteration # 16     ecut=    60.00 Ry     beta= 0.70
     Davidson diagonalization with overlap
     ethr =  6.86E-11,  avg # of iterations =  1.4

     total cpu time spent up to now is     1130.2 secs

     total energy              =    -339.58705031 Ry
     estimated scf accuracy    <          7.2E-09 Ry

     total magnetization       =    -0.00 Bohr mag/cell
     absolute magnetization    =     0.00 Bohr mag/cell

     iteration # 17     ecut=    60.00 Ry     beta= 0.70
     Davidson diagonalization with overlap
     ethr =  3.99E-11,  avg # of iterations =  1.0

     total cpu time spent up to now is     1131.0 secs

     total energy              =    -339.58705031 Ry
     estimated scf accuracy    <          3.8E-09 Ry

     total magnetization       =    -0.00 Bohr mag/cell
     absolute magnetization    =     0.00 Bohr mag/cell

     iteration # 18     ecut=    60.00 Ry     beta= 0.70
     Davidson diagonalization with overlap
     ethr =  2.10E-11,  avg # of iterations =  1.3

     Magnetic moment per site  (integrated on atomic sphere of radius R)
     atom   1 (R=0.412)  charge= 16.1437  magn= -0.0000

     total cpu time spent up to now is     1132.0 secs

     End of self-consistent calculation

     Number of k-points >= 100: set verbosity='high' to print the bands.

     the Fermi energy is    18.7091 ev

!    total energy              =    -339.58705031 Ry
     estimated scf accuracy    <          8.5E-10 Ry
     smearing contrib. (-TS)   =       0.00009172 Ry
     internal energy E=F+TS    =    -339.58714204 Ry

     The total energy is F=E-TS. E is the sum of the following terms:
     one-electron contribution =    -182.00853718 Ry
     hartree contribution      =     103.04654089 Ry
     xc contribution           =     -34.35737547 Ry
     ewald contribution        =    -226.26777028 Ry

     total magnetization       =    -0.00 Bohr mag/cell
     absolute magnetization    =     0.00 Bohr mag/cell

     convergence has been achieved in  18 iterations

     Forces acting on atoms (cartesian axes, Ry/au):

     atom    1 type  1   force =     0.00000000    0.00000000    0.00000000

     Total force =     0.000000     Total SCF correction =     0.000021


     Computing stress (Cartesian axis) and pressure

          total   stress  (Ry/bohr**3)                   (kbar)     P=       65.20
   0.00074953   0.00006990  -0.00007461          110.26       10.28      -10.98
   0.00006990   0.00072389  -0.00006219           10.28      106.49       -9.15
  -0.00007461  -0.00006219  -0.00014381          -10.98       -9.15      -21.16


     Writing all to output data dir ./out/pwscf.save/

     init_run     :      0.81s CPU      0.99s WALL (       2 calls)
     electrons    :    931.23s CPU   1115.66s WALL (      28 calls)
     update_pot   :      2.20s CPU      2.29s WALL (      26 calls)
     forces       :      3.07s CPU      3.83s WALL (      28 calls)
     stress       :      7.47s CPU      8.01s WALL (      28 calls)

     Called by init_run:
     wfcinit      :      0.57s CPU      0.71s WALL (       2 calls)
     potinit      :      0.04s CPU      0.05s WALL (       2 calls)
     hinit0       :      0.18s CPU      0.22s WALL (       2 calls)

     Called by electrons:
     c_bands      :    791.12s CPU    948.88s WALL (     910 calls)
     sum_band     :    129.31s CPU    154.99s WALL (     910 calls)
     v_of_rho     :      6.40s CPU      6.67s WALL (     938 calls)
     newd         :      3.31s CPU      3.47s WALL (     938 calls)
     mix_rho      :      0.70s CPU      1.09s WALL (     910 calls)

     Called by c_bands:
     init_us_2    :     10.55s CPU     12.77s WALL (  570912 calls)
     init_us_2:cp :      9.88s CPU     12.07s WALL (  570912 calls)
     cegterg      :    758.86s CPU    904.27s WALL (  276640 calls)

     Called by *egterg:
     cdiaghg      :     94.04s CPU    110.39s WALL (  722915 calls)
     h_psi        :    520.99s CPU    623.30s WALL (  731427 calls)
     s_psi        :     23.88s CPU     28.11s WALL (  731427 calls)
     g_psi        :      1.37s CPU      1.63s WALL (  454179 calls)

     Called by h_psi:
     h_psi:calbec :     28.97s CPU     34.60s WALL (  731427 calls)
     vloc_psi     :    470.21s CPU    562.82s WALL (  731427 calls)
     add_vuspsi   :     18.73s CPU     22.30s WALL (  731427 calls)

     General routines
     calbec       :     42.36s CPU     51.09s WALL ( 1050627 calls)
     fft          :      2.51s CPU      2.78s WALL (   24540 calls)
     ffts         :      0.13s CPU      0.17s WALL (    3696 calls)
     fftw         :    535.64s CPU    641.99s WALL (19864374 calls)
     interpolate  :      0.27s CPU      0.30s WALL (    1876 calls)

     Parallel routines

     PWSCF        :  15m46.39s CPU  18m53.11s WALL


   This run was terminated on:  15:58:57  18Jun2023            

=------------------------------------------------------------------------------=
   JOB DONE.
=------------------------------------------------------------------------------=
Note: The following floating-point exceptions are signalling: IEEE_DENORMAL
Note: The following floating-point exceptions are signalling: IEEE_DENORMAL
Note: The following floating-point exceptions are signalling: IEEE_DENORMAL
Note: The following floating-point exceptions are signalling: IEEE_DENORMAL
Note: The following floating-point exceptions are signalling: IEEE_DENORMAL
Note: The following floating-point exceptions are signalling: IEEE_DENORMAL
Note: The following floating-point exceptions are signalling: IEEE_DENORMAL
Note: The following floating-point exceptions are signalling: IEEE_DENORMAL
Note: The following floating-point exceptions are signalling: IEEE_DENORMAL
Note: The following floating-point exceptions are signalling: IEEE_DENORMAL
Note: The following floating-point exceptions are signalling: IEEE_DENORMAL
Note: The following floating-point exceptions are signalling: IEEE_DENORMAL
Note: The following floating-point exceptions are signalling: IEEE_DENORMAL
Note: The following floating-point exceptions are signalling: IEEE_DENORMAL
Note: The following floating-point exceptions are signalling: IEEE_DENORMAL
Note: The following floating-point exceptions are signalling: IEEE_DENORMAL
Note: The following floating-point exceptions are signalling: IEEE_DENORMAL
Note: The following floating-point exceptions are signalling: IEEE_DENORMAL
Note: The following floating-point exceptions are signalling: IEEE_DENORMAL
Note: The following floating-point exceptions are signalling: IEEE_DENORMAL
