Ignoring PCI device with non-16bit domain.
Pass --enable-32bits-pci-domain to configure to support such devices
(warning: it would break the library ABI, don't enable unless really needed).

     Program PWSCF v.7.1 starts on 18Jun2023 at 11:36:56 

     This program is part of the open-source Quantum ESPRESSO suite
     for quantum simulation of materials; please cite
         "P. Giannozzi et al., J. Phys.:Condens. Matter 21 395502 (2009);
         "P. Giannozzi et al., J. Phys.:Condens. Matter 29 465901 (2017);
         "P. Giannozzi et al., J. Chem. Phys. 152 154105 (2020);
          URL http://www.quantum-espresso.org", 
     in publications or presentations arising from this work. More details at
     http://www.quantum-espresso.org/quote

     Parallel version (MPI), running on    24 processors

     MPI processes distributed on     1 nodes
     9793 MiB available memory on the printing compute node when the environment starts

     Reading input from Ni_triclinic_t_atoms.in
Warning: card &CELL ignored
Warning: card   CELL_DOFREE  =  "ALL", ignored
Warning: card   CELL_DYNAMICS  =  "BFGS", ignored
Warning: card / ignored

     Current dimensions of program PWSCF are:
     Max number of different atomic species (ntypx) = 10
     Max number of k-points (npk) =  40000
     Max angular momentum in pseudopotentials (lmaxx) =  4

     K-points division:     npool     =       3
     R & G space division:  proc/nbgrp/npool/nimage =       8
     Subspace diagonalization in iterative solution of the eigenvalue problem:
     a serial algorithm will be used


     Parallelization info
     --------------------
     sticks:   dense  smooth     PW     G-vecs:    dense   smooth      PW
     Min          17      17      7                  186      186      44
     Max          18      18      8                  188      188      46
     Sum         141     141     57                 1499     1499     361

     Using Slab Decomposition



     bravais-lattice index     =            0
     lattice parameter (alat)  =       2.3237  a.u.
     unit-cell volume          =      15.4680 (a.u.)^3
     number of atoms/cell      =            1
     number of atomic types    =            1
     number of electrons       =        18.00
     number of Kohn-Sham states=           13
     kinetic-energy cutoff     =      80.0000  Ry
     charge density cutoff     =     320.0000  Ry
     scf convergence threshold =      1.0E-09
     mixing beta               =       0.7000
     number of iterations used =            8  TF        mixing
     Exchange-correlation= PBE
                           (   1   4   3   4   0   0   0)

     celldm(1)=   2.323664  celldm(2)=   0.000000  celldm(3)=   0.000000
     celldm(4)=   0.000000  celldm(5)=   0.000000  celldm(6)=   0.000000

     crystal axes: (cart. coord. in units of alat)
               a(1) = (   1.000000   0.000000   0.000000 )  
               a(2) = (   0.066692   1.030806   0.000000 )  
               a(3) = (   0.312083  -0.014051   1.196018 )  

     reciprocal axes: (cart. coord. in units 2 pi/alat)
               b(1) = (  1.000000 -0.064699 -0.261695 )  
               b(2) = ( -0.000000  0.970115  0.011397 )  
               b(3) = (  0.000000  0.000000  0.836108 )  


     PseudoPot. # 1 for Ni read from file:
     /home/jmgoff/work/automation/qe_pseudos/Ni.upf
     MD5 check sum: 2b0a79d100e227970886d6963e34175b
     Pseudo is Norm-conserving + core correction, Zval = 18.0
     Generated using ONCVPSP code by D. R. Hamann
     Using radial grid of 1372 points,  6 beta functions with: 
                l(1) =   0
                l(2) =   0
                l(3) =   1
                l(4) =   1
                l(5) =   2
                l(6) =   2

     atomic species   valence    mass     pseudopotential
        Ni            18.00    58.69340     Ni( 1.00)

     Starting magnetic structure 
     atomic species   magnetization
        Ni           0.700

     No symmetry found



   Cartesian axes

     site n.     atom                  positions (alat units)
         1           Ni  tau(   1) = (   0.0000000   0.0000000   0.0000000  )

     number of k points=   545  Marzari-Vanderbilt smearing, width (Ry)=  0.0100

     Number of k-points >= 100: set verbosity='high' to print them.

     Dense  grid:     1499 G-vectors     FFT dimensions: (  15,  15,  18)

     Estimated max dynamical RAM per process >       3.37 MB

     Estimated total dynamical RAM >      79.34 MB
     Generating pointlists ...
     new r_m :   0.4125 (alat units)  0.9585 (a.u.) for type    1

     Initial potential from superposition of free atoms

     starting charge      17.9998, renormalised to      18.0000
     Starting wfcs are   10 randomized atomic wfcs +    3 random wfcs

     total cpu time spent up to now is        0.3 secs

     Self-consistent Calculation

     iteration #  1     ecut=    80.00 Ry     beta= 0.70
     Davidson diagonalization with overlap
     ethr =  1.00E-02,  avg # of iterations =  4.8

     total cpu time spent up to now is        1.7 secs

     total energy              =    -328.93870370 Ry
     estimated scf accuracy    <       5.57066175 Ry

     total magnetization       =     0.93 Bohr mag/cell
     absolute magnetization    =     0.93 Bohr mag/cell

     iteration #  2     ecut=    80.00 Ry     beta= 0.70
     Davidson diagonalization with overlap
     ethr =  1.00E-02,  avg # of iterations =  1.0

     total cpu time spent up to now is        2.4 secs

     total energy              =    -329.36410895 Ry
     estimated scf accuracy    <       0.74237629 Ry

     total magnetization       =     0.31 Bohr mag/cell
     absolute magnetization    =     0.31 Bohr mag/cell

     iteration #  3     ecut=    80.00 Ry     beta= 0.70
     Davidson diagonalization with overlap
     ethr =  4.12E-03,  avg # of iterations =  1.0

     total cpu time spent up to now is        3.1 secs

     total energy              =    -329.39734015 Ry
     estimated scf accuracy    <       0.00235256 Ry

     total magnetization       =    -0.00 Bohr mag/cell
     absolute magnetization    =     0.02 Bohr mag/cell

     iteration #  4     ecut=    80.00 Ry     beta= 0.70
     Davidson diagonalization with overlap
     ethr =  1.31E-05,  avg # of iterations =  2.4

     total cpu time spent up to now is        4.0 secs

     total energy              =    -329.39772194 Ry
     estimated scf accuracy    <       0.00016759 Ry

     total magnetization       =     0.00 Bohr mag/cell
     absolute magnetization    =     0.01 Bohr mag/cell

     iteration #  5     ecut=    80.00 Ry     beta= 0.70
     Davidson diagonalization with overlap
     ethr =  9.31E-07,  avg # of iterations =  1.6

     total cpu time spent up to now is        4.8 secs

     total energy              =    -329.39772713 Ry
     estimated scf accuracy    <       0.00001720 Ry

     total magnetization       =     0.00 Bohr mag/cell
     absolute magnetization    =     0.00 Bohr mag/cell

     iteration #  6     ecut=    80.00 Ry     beta= 0.70
     Davidson diagonalization with overlap
     ethr =  9.56E-08,  avg # of iterations =  1.6

     total cpu time spent up to now is        5.7 secs

     total energy              =    -329.39772996 Ry
     estimated scf accuracy    <       0.00000034 Ry

     total magnetization       =    -0.00 Bohr mag/cell
     absolute magnetization    =     0.00 Bohr mag/cell

     iteration #  7     ecut=    80.00 Ry     beta= 0.70
     Davidson diagonalization with overlap
     ethr =  1.90E-09,  avg # of iterations =  1.6

     total cpu time spent up to now is        6.4 secs

     total energy              =    -329.39772999 Ry
     estimated scf accuracy    <       0.00000002 Ry

     total magnetization       =     0.00 Bohr mag/cell
     absolute magnetization    =     0.00 Bohr mag/cell

     iteration #  8     ecut=    80.00 Ry     beta= 0.70
     Davidson diagonalization with overlap
     ethr =  1.25E-10,  avg # of iterations =  1.2

     Magnetic moment per site  (integrated on atomic sphere of radius R)
     atom   1 (R=0.413)  charge= 12.9825  magn= -0.0000

     total cpu time spent up to now is        7.1 secs

     End of self-consistent calculation

     Number of k-points >= 100: set verbosity='high' to print the bands.

     the Fermi energy is   102.9302 ev

!    total energy              =    -329.39772999 Ry
     estimated scf accuracy    <          2.9E-10 Ry
     smearing contrib. (-TS)   =      -0.00002023 Ry
     internal energy E=F+TS    =    -329.39770975 Ry

     The total energy is F=E-TS. E is the sum of the following terms:
     one-electron contribution =      45.84193081 Ry
     hartree contribution      =      38.01381367 Ry
     xc contribution           =     -47.29366752 Ry
     ewald contribution        =    -365.95978673 Ry

     total magnetization       =     0.00 Bohr mag/cell
     absolute magnetization    =     0.00 Bohr mag/cell

     convergence has been achieved in   8 iterations

     Forces acting on atoms (cartesian axes, Ry/au):

     atom    1 type  1   force =     0.00000000    0.00000000    0.00000000

     Total force =     0.000000     Total SCF correction =     0.000000


     Computing stress (Cartesian axis) and pressure

          total   stress  (Ry/bohr**3)                   (kbar)     P=   117013.81
   1.04640092   0.02855204   0.02200597       153930.89     4200.15     3237.19
   0.02855204   0.89595673  -0.00238878         4200.15   131799.78     -351.40
   0.02200597  -0.00238878   0.44397345         3237.19     -351.40    65310.75


     Writing all to output data dir ./out/pwscf.save/

     init_run     :      0.20s CPU      0.26s WALL (       1 calls)
     electrons    :      5.16s CPU      6.80s WALL (       1 calls)
     forces       :      0.05s CPU      0.06s WALL (       1 calls)
     stress       :      0.09s CPU      0.10s WALL (       1 calls)

     Called by init_run:
     wfcinit      :      0.18s CPU      0.24s WALL (       1 calls)
     potinit      :      0.00s CPU      0.00s WALL (       1 calls)
     hinit0       :      0.02s CPU      0.02s WALL (       1 calls)

     Called by electrons:
     c_bands      :      4.59s CPU      6.06s WALL (       8 calls)
     sum_band     :      0.56s CPU      0.72s WALL (       8 calls)
     v_of_rho     :      0.01s CPU      0.01s WALL (       9 calls)
     mix_rho      :      0.00s CPU      0.00s WALL (       8 calls)

     Called by c_bands:
     init_us_2    :      0.05s CPU      0.07s WALL (    6916 calls)
     init_us_2:cp :      0.05s CPU      0.06s WALL (    6916 calls)
     cegterg      :      4.23s CPU      5.46s WALL (    2912 calls)

     Called by *egterg:
     cdiaghg      :      1.07s CPU      1.30s WALL (    8294 calls)
     h_psi        :      2.74s CPU      3.61s WALL (    8658 calls)
     g_psi        :      0.01s CPU      0.01s WALL (    5382 calls)

     Called by h_psi:
     h_psi:calbec :      0.16s CPU      0.21s WALL (    8658 calls)
     vloc_psi     :      2.45s CPU      3.23s WALL (    8658 calls)
     add_vuspsi   :      0.10s CPU      0.13s WALL (    8658 calls)

     General routines
     calbec       :      0.19s CPU      0.25s WALL (   10478 calls)
     fft          :      0.00s CPU      0.00s WALL (     211 calls)
     ffts         :      0.00s CPU      0.00s WALL (      16 calls)
     fftw         :      2.75s CPU      3.62s WALL (  218938 calls)

     Parallel routines

     PWSCF        :      5.75s CPU      7.89s WALL


   This run was terminated on:  11:37: 3  18Jun2023            

=------------------------------------------------------------------------------=
   JOB DONE.
=------------------------------------------------------------------------------=
Note: The following floating-point exceptions are signalling: IEEE_DENORMAL
Note: The following floating-point exceptions are signalling: IEEE_DENORMAL
Note: The following floating-point exceptions are signalling: IEEE_DENORMAL
Note: The following floating-point exceptions are signalling: IEEE_DENORMAL
Note: The following floating-point exceptions are signalling: IEEE_DENORMAL
Note: The following floating-point exceptions are signalling: IEEE_DENORMAL
Note: The following floating-point exceptions are signalling: IEEE_DENORMAL
Note: The following floating-point exceptions are signalling: IEEE_DENORMAL
Note: The following floating-point exceptions are signalling: IEEE_DENORMAL
Note: The following floating-point exceptions are signalling: IEEE_DENORMAL
Note: The following floating-point exceptions are signalling: IEEE_DENORMAL
Note: The following floating-point exceptions are signalling: IEEE_DENORMAL
Note: The following floating-point exceptions are signalling: IEEE_DENORMAL
Note: The following floating-point exceptions are signalling: IEEE_DENORMAL
Note: The following floating-point exceptions are signalling: IEEE_DENORMAL
Note: The following floating-point exceptions are signalling: IEEE_DENORMAL
Note: The following floating-point exceptions are signalling: IEEE_DENORMAL
Note: The following floating-point exceptions are signalling: IEEE_DENORMAL
