Ignoring PCI device with non-16bit domain.
Pass --enable-32bits-pci-domain to configure to support such devices
(warning: it would break the library ABI, don't enable unless really needed).

     Program PWSCF v.7.1 starts on 18Jun2023 at 16: 2:47 

     This program is part of the open-source Quantum ESPRESSO suite
     for quantum simulation of materials; please cite
         "P. Giannozzi et al., J. Phys.:Condens. Matter 21 395502 (2009);
         "P. Giannozzi et al., J. Phys.:Condens. Matter 29 465901 (2017);
         "P. Giannozzi et al., J. Chem. Phys. 152 154105 (2020);
          URL http://www.quantum-espresso.org", 
     in publications or presentations arising from this work. More details at
     http://www.quantum-espresso.org/quote

     Parallel version (MPI), running on    24 processors

     MPI processes distributed on     1 nodes
     9695 MiB available memory on the printing compute node when the environment starts

     Reading input from Ni_orthorhombic_fco_atoms.in

     Current dimensions of program PWSCF are:
     Max number of different atomic species (ntypx) = 10
     Max number of k-points (npk) =  40000
     Max angular momentum in pseudopotentials (lmaxx) =  4

     K-points division:     npool     =       2
     R & G space division:  proc/nbgrp/npool/nimage =      12
     Subspace diagonalization in iterative solution of the eigenvalue problem:
     a serial algorithm will be used


     Parallelization info
     --------------------
     sticks:   dense  smooth     PW     G-vecs:    dense   smooth      PW
     Min          55      27     10                  930      325      75
     Max          56      28     11                  933      328      78
     Sum         667     329    125                11177     3917     919

     Using Slab Decomposition



     bravais-lattice index     =            0
     lattice parameter (alat)  =       4.8119  a.u.
     unit-cell volume          =      62.7762 (a.u.)^3
     number of atoms/cell      =            1
     number of atomic types    =            1
     number of electrons       =        18.00
     number of Kohn-Sham states=           13
     kinetic-energy cutoff     =      60.0000  Ry
     charge density cutoff     =     480.0000  Ry
     scf convergence threshold =      1.0E-06
     mixing beta               =       0.7000
     number of iterations used =            8  TF        mixing
     energy convergence thresh.=      1.0E-05
     force convergence thresh. =      1.0E-04
     press convergence thresh. =      5.0E-01
     Exchange-correlation= PBE
                           (   1   4   3   4   0   0   0)
     nstep                     =           50


     celldm(1)=   4.811923  celldm(2)=   0.000000  celldm(3)=   0.000000
     celldm(4)=   0.000000  celldm(5)=   0.000000  celldm(6)=   0.000000

     crystal axes: (cart. coord. in units of alat)
               a(1) = (   1.000000   0.000000   0.000000 )  
               a(2) = (   0.539936   0.753588   0.000000 )  
               a(3) = (   0.460064   0.094328   0.747661 )  

     reciprocal axes: (cart. coord. in units 2 pi/alat)
               b(1) = (  1.000000 -0.716487 -0.524943 )  
               b(2) = (  0.000000  1.326984 -0.167418 )  
               b(3) = (  0.000000  0.000000  1.337505 )  


     PseudoPot. # 1 for Ni read from file:
     /home/jmgoff/work/automation/qe_pseudos/Ni.upf
     MD5 check sum: caf20d35bef94d268ef04de15446df97
     Pseudo is Ultrasoft + core correction, Zval = 18.0
     Generated using 'atomic' code by A. Dal Corso  v.7.1
     Using radial grid of 1195 points,  6 beta functions with: 
                l(1) =   0
                l(2) =   0
                l(3) =   1
                l(4) =   1
                l(5) =   2
                l(6) =   2
     Q(r) pseudized with 0 coefficients 


     atomic species   valence    mass     pseudopotential
        Ni            18.00    58.69340     Ni( 1.00)

     Starting magnetic structure 
     atomic species   magnetization
        Ni           1.000

     No symmetry found



   Cartesian axes

     site n.     atom                  positions (alat units)
         1           Ni  tau(   1) = (   0.0000000   0.0000000   0.0000000  )

     number of k points=   496  Marzari-Vanderbilt smearing, width (Ry)=  0.0100

     Number of k-points >= 100: set verbosity='high' to print them.

     Dense  grid:    11177 G-vectors     FFT dimensions: (  36,  32,  30)

     Smooth grid:     3917 G-vectors     FFT dimensions: (  24,  24,  24)

     Estimated max dynamical RAM per process >      10.05 MB

     Estimated total dynamical RAM >     235.72 MB

     Check: negative core charge=   -0.000002
     Generating pointlists ...
     new r_m :   0.3642 (alat units)  1.7525 (a.u.) for type    1

     Initial potential from superposition of free atoms

     starting charge      17.9998, renormalised to      18.0000
     Starting wfcs are   10 randomized atomic wfcs +    3 random wfcs

     total cpu time spent up to now is        0.8 secs

     Self-consistent Calculation

     iteration #  1     ecut=    60.00 Ry     beta= 0.70
     Davidson diagonalization with overlap
     ethr =  1.00E-02,  avg # of iterations =  5.2

     negative rho (up, down):  0.000E+00 2.777E-05

     total cpu time spent up to now is        3.6 secs

     total energy              =    -336.10042012 Ry
     estimated scf accuracy    <       8.01143634 Ry

     total magnetization       =     5.79 Bohr mag/cell
     absolute magnetization    =     5.79 Bohr mag/cell

     iteration #  2     ecut=    60.00 Ry     beta= 0.70
     Davidson diagonalization with overlap
     ethr =  1.00E-02,  avg # of iterations =  2.3

     total cpu time spent up to now is        5.6 secs

     total energy              =    -338.84703788 Ry
     estimated scf accuracy    <       4.55433292 Ry

     total magnetization       =     1.15 Bohr mag/cell
     absolute magnetization    =     1.32 Bohr mag/cell

     iteration #  3     ecut=    60.00 Ry     beta= 0.70
     Davidson diagonalization with overlap
     ethr =  1.00E-02,  avg # of iterations =  1.7

     total cpu time spent up to now is        7.3 secs

     total energy              =    -339.50602631 Ry
     estimated scf accuracy    <       0.62038687 Ry

     total magnetization       =     1.44 Bohr mag/cell
     absolute magnetization    =     1.61 Bohr mag/cell

     iteration #  4     ecut=    60.00 Ry     beta= 0.70
     Davidson diagonalization with overlap
     ethr =  3.45E-03,  avg # of iterations =  2.0

     total cpu time spent up to now is        9.1 secs

     total energy              =    -339.39566213 Ry
     estimated scf accuracy    <      19.22754780 Ry

     total magnetization       =     0.60 Bohr mag/cell
     absolute magnetization    =     6.50 Bohr mag/cell

     iteration #  5     ecut=    60.00 Ry     beta= 0.70
     Davidson diagonalization with overlap
     ethr =  3.45E-03,  avg # of iterations =  2.0

     total cpu time spent up to now is       10.9 secs

     total energy              =    -339.55807034 Ry
     estimated scf accuracy    <       0.97813018 Ry

     total magnetization       =     0.68 Bohr mag/cell
     absolute magnetization    =     1.80 Bohr mag/cell

     iteration #  6     ecut=    60.00 Ry     beta= 0.70
     Davidson diagonalization with overlap
     ethr =  3.45E-03,  avg # of iterations =  1.5

     total cpu time spent up to now is       12.5 secs

     total energy              =    -339.59770092 Ry
     estimated scf accuracy    <       1.12580728 Ry

     total magnetization       =     0.62 Bohr mag/cell
     absolute magnetization    =     1.50 Bohr mag/cell

     iteration #  7     ecut=    60.00 Ry     beta= 0.70
     Davidson diagonalization with overlap
     ethr =  3.45E-03,  avg # of iterations =  1.3

     total cpu time spent up to now is       14.1 secs

     total energy              =    -339.51673296 Ry
     estimated scf accuracy    <       3.34631118 Ry

     total magnetization       =     0.60 Bohr mag/cell
     absolute magnetization    =     2.84 Bohr mag/cell

     iteration #  8     ecut=    60.00 Ry     beta= 0.70
     Davidson diagonalization with overlap
     ethr =  3.45E-03,  avg # of iterations =  2.0

     total cpu time spent up to now is       15.8 secs

     total energy              =    -339.56832015 Ry
     estimated scf accuracy    <       0.13655589 Ry

     total magnetization       =     0.61 Bohr mag/cell
     absolute magnetization    =     0.96 Bohr mag/cell

     iteration #  9     ecut=    60.00 Ry     beta= 0.70
     Davidson diagonalization with overlap
     ethr =  7.59E-04,  avg # of iterations =  1.4

     total cpu time spent up to now is       17.3 secs

     total energy              =    -339.57303965 Ry
     estimated scf accuracy    <       0.05042131 Ry

     total magnetization       =     0.59 Bohr mag/cell
     absolute magnetization    =     0.77 Bohr mag/cell

     iteration # 10     ecut=    60.00 Ry     beta= 0.70
     Davidson diagonalization with overlap
     ethr =  2.80E-04,  avg # of iterations =  1.0

     total cpu time spent up to now is       18.8 secs

     total energy              =    -339.57013548 Ry
     estimated scf accuracy    <       0.10097008 Ry

     total magnetization       =     0.59 Bohr mag/cell
     absolute magnetization    =     0.87 Bohr mag/cell

     iteration # 11     ecut=    60.00 Ry     beta= 0.70
     Davidson diagonalization with overlap
     ethr =  2.80E-04,  avg # of iterations =  1.4

     total cpu time spent up to now is       20.3 secs

     total energy              =    -339.57178568 Ry
     estimated scf accuracy    <       0.01121823 Ry

     total magnetization       =     0.58 Bohr mag/cell
     absolute magnetization    =     0.69 Bohr mag/cell

     iteration # 12     ecut=    60.00 Ry     beta= 0.70
     Davidson diagonalization with overlap
     ethr =  6.23E-05,  avg # of iterations =  1.0

     total cpu time spent up to now is       21.8 secs

     total energy              =    -339.57201303 Ry
     estimated scf accuracy    <       0.00043469 Ry

     total magnetization       =     0.55 Bohr mag/cell
     absolute magnetization    =     0.63 Bohr mag/cell

     iteration # 13     ecut=    60.00 Ry     beta= 0.70
     Davidson diagonalization with overlap
     ethr =  2.41E-06,  avg # of iterations =  2.2

     total cpu time spent up to now is       23.6 secs

     total energy              =    -339.57202384 Ry
     estimated scf accuracy    <       0.00199630 Ry

     total magnetization       =     0.55 Bohr mag/cell
     absolute magnetization    =     0.62 Bohr mag/cell

     iteration # 14     ecut=    60.00 Ry     beta= 0.70
     Davidson diagonalization with overlap
     ethr =  2.41E-06,  avg # of iterations =  2.0

     total cpu time spent up to now is       25.3 secs

     total energy              =    -339.57206931 Ry
     estimated scf accuracy    <       0.00011463 Ry

     total magnetization       =     0.53 Bohr mag/cell
     absolute magnetization    =     0.60 Bohr mag/cell

     iteration # 15     ecut=    60.00 Ry     beta= 0.70
     Davidson diagonalization with overlap
     ethr =  6.37E-07,  avg # of iterations =  1.5

     total cpu time spent up to now is       26.9 secs

     total energy              =    -339.57210187 Ry
     estimated scf accuracy    <       0.00002987 Ry

     total magnetization       =     0.50 Bohr mag/cell
     absolute magnetization    =     0.57 Bohr mag/cell

     iteration # 16     ecut=    60.00 Ry     beta= 0.70
     Davidson diagonalization with overlap
     ethr =  1.66E-07,  avg # of iterations =  1.6

     total cpu time spent up to now is       28.5 secs

     total energy              =    -339.57210292 Ry
     estimated scf accuracy    <       0.00002581 Ry

     total magnetization       =     0.50 Bohr mag/cell
     absolute magnetization    =     0.56 Bohr mag/cell

     iteration # 17     ecut=    60.00 Ry     beta= 0.70
     Davidson diagonalization with overlap
     ethr =  1.43E-07,  avg # of iterations =  1.3

     total cpu time spent up to now is       30.1 secs

     total energy              =    -339.57210410 Ry
     estimated scf accuracy    <       0.00000614 Ry

     total magnetization       =     0.50 Bohr mag/cell
     absolute magnetization    =     0.56 Bohr mag/cell

     iteration # 18     ecut=    60.00 Ry     beta= 0.70
     Davidson diagonalization with overlap
     ethr =  3.41E-08,  avg # of iterations =  1.0

     total cpu time spent up to now is       31.5 secs

     total energy              =    -339.57210426 Ry
     estimated scf accuracy    <       0.00000156 Ry

     total magnetization       =     0.50 Bohr mag/cell
     absolute magnetization    =     0.56 Bohr mag/cell

     iteration # 19     ecut=    60.00 Ry     beta= 0.70
     Davidson diagonalization with overlap
     ethr =  8.66E-09,  avg # of iterations =  1.0

     Magnetic moment per site  (integrated on atomic sphere of radius R)
     atom   1 (R=0.364)  charge= 16.2928  magn=  0.5265

     total cpu time spent up to now is       32.9 secs

     End of self-consistent calculation

     Number of k-points >= 100: set verbosity='high' to print the bands.

     the Fermi energy is    21.7366 ev

!    total energy              =    -339.57210426 Ry
     estimated scf accuracy    <       0.00000019 Ry
     smearing contrib. (-TS)   =       0.00016696 Ry
     internal energy E=F+TS    =    -339.57227122 Ry

     The total energy is F=E-TS. E is the sum of the following terms:
     one-electron contribution =    -167.25146798 Ry
     hartree contribution      =      97.48013316 Ry
     xc contribution           =     -34.45536081 Ry
     ewald contribution        =    -235.34557560 Ry

     total magnetization       =     0.50 Bohr mag/cell
     absolute magnetization    =     0.56 Bohr mag/cell

     convergence has been achieved in  19 iterations

     Forces acting on atoms (cartesian axes, Ry/au):

     atom    1 type  1   force =     0.00000000    0.00000000    0.00000000

     Total force =     0.000000     Total SCF correction =     0.000856


     Computing stress (Cartesian axis) and pressure

          total   stress  (Ry/bohr**3)                   (kbar)     P=      459.55
   0.00272034  -0.00068643   0.00081133          400.18     -100.98      119.35
  -0.00068643   0.00336182   0.00042406         -100.98      494.54       62.38
   0.00081133   0.00042406   0.00328967          119.35       62.38      483.93


     BFGS Geometry Optimization
     Energy error            =      0.0E+00 Ry
     Gradient error          =      0.0E+00 Ry/Bohr
     Cell gradient error     =      4.9E+02 kbar

     number of scf cycles    =   1
     number of bfgs steps    =   0

     enthalpy           new  =    -339.5721042636 Ry

     new trust radius        =       0.1369629069 bohr
     new conv_thr            =       0.0000010000 Ry

     new unit-cell volume =     78.60169 a.u.^3 (    11.64757 Ang^3 )
     density =      8.36764 g/cm^3

CELL_PARAMETERS (bohr)
   5.139174660  -0.082576210   0.097601917
   2.712598199   3.886390226   0.091141984
   2.429533317   0.492197172   3.943280210

ATOMIC_POSITIONS (crystal)
Ni            0.0000000000        0.0000000000        0.0000000000



     Writing config-only to output data dir ./out/pwscf.save/
     NEW-OLD atomic charge density approx. for the potential

     Check: negative core charge=   -0.000003
     extrapolated charge   21.62404, renormalised to   18.00000
     Generating pointlists ...

     total cpu time spent up to now is       33.4 secs

     Self-consistent Calculation

     iteration #  1     ecut=    60.00 Ry     beta= 0.70
     Davidson diagonalization with overlap
     c_bands:  1 eigenvalues not converged
     c_bands:  1 eigenvalues not converged
     c_bands:  2 eigenvalues not converged
     c_bands:  1 eigenvalues not converged
     c_bands:  2 eigenvalues not converged
     c_bands:  1 eigenvalues not converged
     c_bands:  1 eigenvalues not converged
     c_bands:  1 eigenvalues not converged
     c_bands:  1 eigenvalues not converged
     c_bands:  1 eigenvalues not converged
     c_bands:  1 eigenvalues not converged
     c_bands:  2 eigenvalues not converged
     c_bands:  1 eigenvalues not converged
     c_bands:  1 eigenvalues not converged
     c_bands:  1 eigenvalues not converged
     c_bands:  1 eigenvalues not converged
     c_bands:  1 eigenvalues not converged
     c_bands:  1 eigenvalues not converged
     c_bands:  1 eigenvalues not converged
     c_bands:  1 eigenvalues not converged
     c_bands:  2 eigenvalues not converged
     c_bands:  1 eigenvalues not converged
     c_bands:  1 eigenvalues not converged
     c_bands:  1 eigenvalues not converged
     c_bands:  2 eigenvalues not converged
     c_bands:  1 eigenvalues not converged
     c_bands:  1 eigenvalues not converged
     c_bands:  1 eigenvalues not converged
     c_bands:  1 eigenvalues not converged
     c_bands:  1 eigenvalues not converged
     c_bands:  2 eigenvalues not converged
     c_bands:  1 eigenvalues not converged
     c_bands:  2 eigenvalues not converged
     c_bands:  1 eigenvalues not converged
     c_bands:  2 eigenvalues not converged
     c_bands:  1 eigenvalues not converged
     c_bands:  1 eigenvalues not converged
     c_bands:  1 eigenvalues not converged
     c_bands:  1 eigenvalues not converged
     c_bands:  1 eigenvalues not converged
     c_bands:  1 eigenvalues not converged
     c_bands:  1 eigenvalues not converged
     c_bands:  2 eigenvalues not converged
     c_bands:  1 eigenvalues not converged
     c_bands:  1 eigenvalues not converged
     c_bands:  1 eigenvalues not converged
     c_bands:  1 eigenvalues not converged
     c_bands:  1 eigenvalues not converged
     c_bands:  1 eigenvalues not converged
     c_bands:  1 eigenvalues not converged
     c_bands:  1 eigenvalues not converged
     c_bands:  2 eigenvalues not converged
     c_bands:  1 eigenvalues not converged
     c_bands:  1 eigenvalues not converged
     c_bands:  1 eigenvalues not converged
     c_bands:  1 eigenvalues not converged
     ethr =  1.00E-06,  avg # of iterations = 14.5

     total cpu time spent up to now is       41.0 secs

     total energy              =    -314.86914003 Ry
     estimated scf accuracy    <      25.96356140 Ry

     total magnetization       =     0.03 Bohr mag/cell
     absolute magnetization    =     0.07 Bohr mag/cell

     iteration #  2     ecut=    60.00 Ry     beta= 0.70
     Davidson diagonalization with overlap
     ethr =  1.00E-02,  avg # of iterations =  4.0

     total cpu time spent up to now is       43.7 secs

     total energy              =    -341.90471137 Ry
     estimated scf accuracy    <      42.68744689 Ry

     total magnetization       =     0.00 Bohr mag/cell
     absolute magnetization    =     0.08 Bohr mag/cell

     iteration #  3     ecut=    60.00 Ry     beta= 0.70
     Davidson diagonalization with overlap
     ethr =  1.00E-02,  avg # of iterations =  2.0

     total cpu time spent up to now is       45.7 secs

     total energy              =    -341.49913972 Ry
     estimated scf accuracy    <      14.46920844 Ry

     total magnetization       =    -0.00 Bohr mag/cell
     absolute magnetization    =     1.06 Bohr mag/cell

     iteration #  4     ecut=    60.00 Ry     beta= 0.70
     Davidson diagonalization with overlap
     ethr =  1.00E-02,  avg # of iterations =  2.0

     negative rho (up, down):  7.857E-03 8.589E-03

     total cpu time spent up to now is       47.5 secs

     total energy              =    -338.36544629 Ry
     estimated scf accuracy    <     174.70536920 Ry

     total magnetization       =    -0.00 Bohr mag/cell
     absolute magnetization    =    18.65 Bohr mag/cell

     iteration #  5     ecut=    60.00 Ry     beta= 0.70
     Davidson diagonalization with overlap
     ethr =  1.00E-02,  avg # of iterations =  2.0

     total cpu time spent up to now is       49.2 secs

     total energy              =    -340.50830900 Ry
     estimated scf accuracy    <       5.48645173 Ry

     total magnetization       =     0.06 Bohr mag/cell
     absolute magnetization    =     0.52 Bohr mag/cell

     iteration #  6     ecut=    60.00 Ry     beta= 0.70
     Davidson diagonalization with overlap
     ethr =  1.00E-02,  avg # of iterations =  1.0
     Minimization algorithm failed to find Fermi energy: reverting to bisection
     Possible cause: smearing is larger than the electronic band-gap.

     total cpu time spent up to now is       50.7 secs

     total energy              =    -340.61041461 Ry
     estimated scf accuracy    <       6.62394614 Ry

     total magnetization       =     0.03 Bohr mag/cell
     absolute magnetization    =     1.51 Bohr mag/cell

     iteration #  7     ecut=    60.00 Ry     beta= 0.70
     Davidson diagonalization with overlap
     ethr =  1.00E-02,  avg # of iterations =  1.0
     Minimization algorithm failed to find Fermi energy: reverting to bisection
     Possible cause: smearing is larger than the electronic band-gap.

     total cpu time spent up to now is       52.1 secs

     total energy              =    -340.04226252 Ry
     estimated scf accuracy    <       6.64676108 Ry

     total magnetization       =     0.03 Bohr mag/cell
     absolute magnetization    =     1.59 Bohr mag/cell

     iteration #  8     ecut=    60.00 Ry     beta= 0.70
     Davidson diagonalization with overlap
     ethr =  1.00E-02,  avg # of iterations =  1.0

     total cpu time spent up to now is       53.5 secs

     total energy              =    -339.99924485 Ry
     estimated scf accuracy    <       5.04378626 Ry

     total magnetization       =     0.16 Bohr mag/cell
     absolute magnetization    =     2.07 Bohr mag/cell

     iteration #  9     ecut=    60.00 Ry     beta= 0.70
     Davidson diagonalization with overlap
     ethr =  1.00E-02,  avg # of iterations =  1.0

     total cpu time spent up to now is       55.0 secs

     total energy              =    -339.97438285 Ry
     estimated scf accuracy    <       3.03012479 Ry

     total magnetization       =     0.15 Bohr mag/cell
     absolute magnetization    =     0.94 Bohr mag/cell

     iteration # 10     ecut=    60.00 Ry     beta= 0.70
     Davidson diagonalization with overlap
     ethr =  1.00E-02,  avg # of iterations =  1.0

     total cpu time spent up to now is       56.5 secs

     total energy              =    -339.02398674 Ry
     estimated scf accuracy    <       2.58849246 Ry

     total magnetization       =     0.17 Bohr mag/cell
     absolute magnetization    =     0.83 Bohr mag/cell

     iteration # 11     ecut=    60.00 Ry     beta= 0.70
     Davidson diagonalization with overlap
     ethr =  1.00E-02,  avg # of iterations =  2.0

     total cpu time spent up to now is       58.3 secs

     total energy              =    -339.54500335 Ry
     estimated scf accuracy    <       1.09041496 Ry

     total magnetization       =     0.47 Bohr mag/cell
     absolute magnetization    =     1.55 Bohr mag/cell

     iteration # 12     ecut=    60.00 Ry     beta= 0.70
     Davidson diagonalization with overlap
     ethr =  6.06E-03,  avg # of iterations =  1.0

     total cpu time spent up to now is       59.7 secs

     total energy              =    -339.56209698 Ry
     estimated scf accuracy    <       0.15210964 Ry

     total magnetization       =     0.48 Bohr mag/cell
     absolute magnetization    =     0.54 Bohr mag/cell

     iteration # 13     ecut=    60.00 Ry     beta= 0.70
     Davidson diagonalization with overlap
     ethr =  8.45E-04,  avg # of iterations =  1.6

     total cpu time spent up to now is       61.4 secs

     total energy              =    -339.55003891 Ry
     estimated scf accuracy    <       0.20190119 Ry

     total magnetization       =     0.51 Bohr mag/cell
     absolute magnetization    =     0.87 Bohr mag/cell

     iteration # 14     ecut=    60.00 Ry     beta= 0.70
     Davidson diagonalization with overlap
     ethr =  8.45E-04,  avg # of iterations =  1.4

     total cpu time spent up to now is       62.9 secs

     total energy              =    -339.56514376 Ry
     estimated scf accuracy    <       0.00910272 Ry

     total magnetization       =     0.55 Bohr mag/cell
     absolute magnetization    =     0.62 Bohr mag/cell

     iteration # 15     ecut=    60.00 Ry     beta= 0.70
     Davidson diagonalization with overlap
     ethr =  5.06E-05,  avg # of iterations =  1.3

     total cpu time spent up to now is       64.4 secs

     total energy              =    -339.56629224 Ry
     estimated scf accuracy    <       0.00128731 Ry

     total magnetization       =     0.63 Bohr mag/cell
     absolute magnetization    =     0.71 Bohr mag/cell

     iteration # 16     ecut=    60.00 Ry     beta= 0.70
     Davidson diagonalization with overlap
     ethr =  7.15E-06,  avg # of iterations =  2.2

     total cpu time spent up to now is       66.2 secs

     total energy              =    -339.56631202 Ry
     estimated scf accuracy    <       0.01152625 Ry

     total magnetization       =     0.65 Bohr mag/cell
     absolute magnetization    =     0.75 Bohr mag/cell

     iteration # 17     ecut=    60.00 Ry     beta= 0.70
     Davidson diagonalization with overlap
     ethr =  7.15E-06,  avg # of iterations =  1.8

     total cpu time spent up to now is       68.0 secs

     total energy              =    -339.56545098 Ry
     estimated scf accuracy    <       0.02650797 Ry

     total magnetization       =     0.63 Bohr mag/cell
     absolute magnetization    =     0.78 Bohr mag/cell

     iteration # 18     ecut=    60.00 Ry     beta= 0.70
     Davidson diagonalization with overlap
     ethr =  7.15E-06,  avg # of iterations =  2.0

     total cpu time spent up to now is       69.7 secs

     total energy              =    -339.56607777 Ry
     estimated scf accuracy    <       0.00909739 Ry

     total magnetization       =     0.65 Bohr mag/cell
     absolute magnetization    =     0.75 Bohr mag/cell

     iteration # 19     ecut=    60.00 Ry     beta= 0.70
     Davidson diagonalization with overlap
     ethr =  7.15E-06,  avg # of iterations =  1.4

     total cpu time spent up to now is       71.3 secs

     total energy              =    -339.56633560 Ry
     estimated scf accuracy    <       0.00348199 Ry

     total magnetization       =     0.65 Bohr mag/cell
     absolute magnetization    =     0.74 Bohr mag/cell

     iteration # 20     ecut=    60.00 Ry     beta= 0.70
     Davidson diagonalization with overlap
     ethr =  7.15E-06,  avg # of iterations =  1.5

     total cpu time spent up to now is       73.1 secs

     total energy              =    -339.56661338 Ry
     estimated scf accuracy    <       0.02408773 Ry

     total magnetization       =     0.65 Bohr mag/cell
     absolute magnetization    =     0.79 Bohr mag/cell

     iteration # 21     ecut=    60.00 Ry     beta= 0.70
     Davidson diagonalization with overlap
     ethr =  7.15E-06,  avg # of iterations =  2.0

     total cpu time spent up to now is       74.9 secs

     total energy              =    -339.56533808 Ry
     estimated scf accuracy    <       0.10438155 Ry

     total magnetization       =     0.67 Bohr mag/cell
     absolute magnetization    =     0.94 Bohr mag/cell

     iteration # 22     ecut=    60.00 Ry     beta= 0.70
     Davidson diagonalization with overlap
     ethr =  7.15E-06,  avg # of iterations =  1.3

     total cpu time spent up to now is       76.4 secs

     total energy              =    -339.56249806 Ry
     estimated scf accuracy    <       0.12781050 Ry

     total magnetization       =     0.67 Bohr mag/cell
     absolute magnetization    =     0.97 Bohr mag/cell

     iteration # 23     ecut=    60.00 Ry     beta= 0.70
     Davidson diagonalization with overlap
     ethr =  7.15E-06,  avg # of iterations =  2.0

     total cpu time spent up to now is       78.1 secs

     total energy              =    -339.56338394 Ry
     estimated scf accuracy    <       0.06571494 Ry

     total magnetization       =     0.66 Bohr mag/cell
     absolute magnetization    =     0.89 Bohr mag/cell

     iteration # 24     ecut=    60.00 Ry     beta= 0.70
     Davidson diagonalization with overlap
     ethr =  7.15E-06,  avg # of iterations =  2.0

     total cpu time spent up to now is       79.8 secs

     total energy              =    -339.56511696 Ry
     estimated scf accuracy    <       0.03351769 Ry

     total magnetization       =     0.65 Bohr mag/cell
     absolute magnetization    =     0.82 Bohr mag/cell

     iteration # 25     ecut=    60.00 Ry     beta= 0.70
     Davidson diagonalization with overlap
     ethr =  7.15E-06,  avg # of iterations =  1.0

     total cpu time spent up to now is       81.3 secs

     total energy              =    -339.56548701 Ry
     estimated scf accuracy    <       0.04384684 Ry

     total magnetization       =     0.66 Bohr mag/cell
     absolute magnetization    =     0.85 Bohr mag/cell

     iteration # 26     ecut=    60.00 Ry     beta= 0.70
     Davidson diagonalization with overlap
     ethr =  7.15E-06,  avg # of iterations =  2.0

     total cpu time spent up to now is       83.0 secs

     total energy              =    -339.56518043 Ry
     estimated scf accuracy    <       0.06429648 Ry

     total magnetization       =     0.68 Bohr mag/cell
     absolute magnetization    =     0.90 Bohr mag/cell

     iteration # 27     ecut=    60.00 Ry     beta= 0.70
     Davidson diagonalization with overlap
     ethr =  7.15E-06,  avg # of iterations =  1.0

     total cpu time spent up to now is       84.4 secs

     total energy              =    -339.56359525 Ry
     estimated scf accuracy    <       0.06492485 Ry

     total magnetization       =     0.68 Bohr mag/cell
     absolute magnetization    =     0.91 Bohr mag/cell

     iteration # 28     ecut=    60.00 Ry     beta= 0.70
     Davidson diagonalization with overlap
     ethr =  7.15E-06,  avg # of iterations =  2.0

     total cpu time spent up to now is       86.2 secs

     total energy              =    -339.56551049 Ry
     estimated scf accuracy    <       0.00663410 Ry

     total magnetization       =     0.66 Bohr mag/cell
     absolute magnetization    =     0.78 Bohr mag/cell

     iteration # 29     ecut=    60.00 Ry     beta= 0.70
     Davidson diagonalization with overlap
     ethr =  7.15E-06,  avg # of iterations =  1.9

     total cpu time spent up to now is       88.0 secs

     total energy              =    -339.56640822 Ry
     estimated scf accuracy    <       0.00106582 Ry

     total magnetization       =     0.67 Bohr mag/cell
     absolute magnetization    =     0.78 Bohr mag/cell

     iteration # 30     ecut=    60.00 Ry     beta= 0.70
     Davidson diagonalization with overlap
     ethr =  5.92E-06,  avg # of iterations =  1.1

     total cpu time spent up to now is       89.4 secs

     total energy              =    -339.56644689 Ry
     estimated scf accuracy    <       0.00003800 Ry

     total magnetization       =     0.67 Bohr mag/cell
     absolute magnetization    =     0.78 Bohr mag/cell

     iteration # 31     ecut=    60.00 Ry     beta= 0.70
     Davidson diagonalization with overlap
     ethr =  2.11E-07,  avg # of iterations =  1.5

     total cpu time spent up to now is       91.1 secs

     total energy              =    -339.56644962 Ry
     estimated scf accuracy    <       0.00002334 Ry

     total magnetization       =     0.68 Bohr mag/cell
     absolute magnetization    =     0.78 Bohr mag/cell

     iteration # 32     ecut=    60.00 Ry     beta= 0.70
     Davidson diagonalization with overlap
     ethr =  1.30E-07,  avg # of iterations =  1.5

     total cpu time spent up to now is       92.7 secs

     total energy              =    -339.56645080 Ry
     estimated scf accuracy    <       0.00001415 Ry

     total magnetization       =     0.68 Bohr mag/cell
     absolute magnetization    =     0.78 Bohr mag/cell

     iteration # 33     ecut=    60.00 Ry     beta= 0.70
     Davidson diagonalization with overlap
     ethr =  7.86E-08,  avg # of iterations =  1.5

     total cpu time spent up to now is       94.4 secs

     total energy              =    -339.56644637 Ry
     estimated scf accuracy    <       0.00007568 Ry

     total magnetization       =     0.68 Bohr mag/cell
     absolute magnetization    =     0.78 Bohr mag/cell

     iteration # 34     ecut=    60.00 Ry     beta= 0.70
     Davidson diagonalization with overlap
     ethr =  7.86E-08,  avg # of iterations =  1.8

     total cpu time spent up to now is       96.1 secs

     total energy              =    -339.56645003 Ry
     estimated scf accuracy    <       0.00000720 Ry

     total magnetization       =     0.68 Bohr mag/cell
     absolute magnetization    =     0.78 Bohr mag/cell

     iteration # 35     ecut=    60.00 Ry     beta= 0.70
     Davidson diagonalization with overlap
     ethr =  4.00E-08,  avg # of iterations =  1.0

     total cpu time spent up to now is       97.5 secs

     total energy              =    -339.56645064 Ry
     estimated scf accuracy    <       0.00000122 Ry

     total magnetization       =     0.68 Bohr mag/cell
     absolute magnetization    =     0.78 Bohr mag/cell

     iteration # 36     ecut=    60.00 Ry     beta= 0.70
     Davidson diagonalization with overlap
     ethr =  6.77E-09,  avg # of iterations =  1.0

     Magnetic moment per site  (integrated on atomic sphere of radius R)
     atom   1 (R=0.364)  charge= 16.1061  magn=  0.7280

     total cpu time spent up to now is       98.9 secs

     End of self-consistent calculation

     Number of k-points >= 100: set verbosity='high' to print the bands.

     the Fermi energy is    16.4897 ev

!    total energy              =    -339.56645092 Ry
     estimated scf accuracy    <       0.00000011 Ry
     smearing contrib. (-TS)   =      -0.00002568 Ry
     internal energy E=F+TS    =    -339.56642523 Ry

     The total energy is F=E-TS. E is the sum of the following terms:
     one-electron contribution =    -194.78921754 Ry
     hartree contribution      =     107.95458696 Ry
     xc contribution           =     -34.30099758 Ry
     ewald contribution        =    -218.43079708 Ry

     total magnetization       =     0.68 Bohr mag/cell
     absolute magnetization    =     0.78 Bohr mag/cell

     convergence has been achieved in  36 iterations

     Forces acting on atoms (cartesian axes, Ry/au):

     atom    1 type  1   force =     0.00000000    0.00000000    0.00000000

     Total force =     0.000000     Total SCF correction =     0.000297


     Computing stress (Cartesian axis) and pressure

          total   stress  (Ry/bohr**3)                   (kbar)     P=     -591.27
  -0.00388367   0.00045973  -0.00057703         -571.31       67.63      -84.88
   0.00045973  -0.00407234  -0.00005375           67.63     -599.06       -7.91
  -0.00057703  -0.00005375  -0.00410216          -84.88       -7.91     -603.45

     Energy error            =      5.7E-03 Ry
     Gradient error          =      0.0E+00 Ry/Bohr
     Cell gradient error     =      6.0E+02 kbar

     number of scf cycles    =   2
     number of bfgs steps    =   1

     enthalpy           old  =    -339.5721042636 Ry
     enthalpy           new  =    -339.5664509155 Ry

     CASE: enthalpy          _new > enthalpy          _old

     new trust radius        =       0.0631372964 bohr
     new conv_thr            =       0.0000010000 Ry

     new unit-cell volume =     69.61224 a.u.^3 (    10.31547 Ang^3 )
     density =      9.44821 g/cm^3

CELL_PARAMETERS (bohr)
   4.959059047  -0.037127244   0.043882980
   2.649597069   3.743189876   0.040978517
   2.310792170   0.471118100   3.753068894

ATOMIC_POSITIONS (crystal)
Ni            0.0000000000        0.0000000000        0.0000000000



     Writing config-only to output data dir ./out/pwscf.save/
     NEW-OLD atomic charge density approx. for the potential

     Check: negative core charge=   -0.000003
     extrapolated charge   15.67558, renormalised to   18.00000
     Generating pointlists ...

     total cpu time spent up to now is       99.4 secs

     Self-consistent Calculation

     iteration #  1     ecut=    60.00 Ry     beta= 0.70
     Davidson diagonalization with overlap
     ethr =  1.00E-06,  avg # of iterations =  8.8

     total cpu time spent up to now is      104.7 secs

     total energy              =    -330.04902742 Ry
     estimated scf accuracy    <      10.94494072 Ry

     total magnetization       =    -0.00 Bohr mag/cell
     absolute magnetization    =     0.05 Bohr mag/cell

     iteration #  2     ecut=    60.00 Ry     beta= 0.70
     Davidson diagonalization with overlap
     ethr =  1.00E-02,  avg # of iterations =  3.3

     total cpu time spent up to now is      107.2 secs

     total energy              =    -339.12381684 Ry
     estimated scf accuracy    <      27.05013458 Ry

     total magnetization       =     0.06 Bohr mag/cell
     absolute magnetization    =     0.22 Bohr mag/cell

     iteration #  3     ecut=    60.00 Ry     beta= 0.70
     Davidson diagonalization with overlap
     ethr =  1.00E-02,  avg # of iterations =  3.0

     total cpu time spent up to now is      109.5 secs

     total energy              =    -340.68257344 Ry
     estimated scf accuracy    <       6.14532863 Ry

     total magnetization       =     0.20 Bohr mag/cell
     absolute magnetization    =     1.69 Bohr mag/cell

     iteration #  4     ecut=    60.00 Ry     beta= 0.70
     Davidson diagonalization with overlap
     ethr =  1.00E-02,  avg # of iterations =  1.0

     total cpu time spent up to now is      110.9 secs

     total energy              =    -339.38070440 Ry
     estimated scf accuracy    <       6.74445701 Ry

     total magnetization       =     0.19 Bohr mag/cell
     absolute magnetization    =     2.18 Bohr mag/cell

     iteration #  5     ecut=    60.00 Ry     beta= 0.70
     Davidson diagonalization with overlap
     ethr =  1.00E-02,  avg # of iterations =  2.0

     total cpu time spent up to now is      112.6 secs

     total energy              =    -339.70951357 Ry
     estimated scf accuracy    <       0.82861841 Ry

     total magnetization       =     0.28 Bohr mag/cell
     absolute magnetization    =     0.36 Bohr mag/cell

     iteration #  6     ecut=    60.00 Ry     beta= 0.70
     Davidson diagonalization with overlap
     ethr =  4.60E-03,  avg # of iterations =  1.0

     total cpu time spent up to now is      114.1 secs

     total energy              =    -339.71557351 Ry
     estimated scf accuracy    <       0.76475401 Ry

     total magnetization       =     0.28 Bohr mag/cell
     absolute magnetization    =     0.66 Bohr mag/cell

     iteration #  7     ecut=    60.00 Ry     beta= 0.70
     Davidson diagonalization with overlap
     ethr =  4.25E-03,  avg # of iterations =  1.0

     total cpu time spent up to now is      115.5 secs

     total energy              =    -339.64540309 Ry
     estimated scf accuracy    <       0.65823871 Ry

     total magnetization       =     0.28 Bohr mag/cell
     absolute magnetization    =     0.41 Bohr mag/cell

     iteration #  8     ecut=    60.00 Ry     beta= 0.70
     Davidson diagonalization with overlap
     ethr =  3.66E-03,  avg # of iterations =  1.0

     total cpu time spent up to now is      116.9 secs

     total energy              =    -339.59664094 Ry
     estimated scf accuracy    <       0.34854715 Ry

     total magnetization       =     0.33 Bohr mag/cell
     absolute magnetization    =     0.35 Bohr mag/cell

     iteration #  9     ecut=    60.00 Ry     beta= 0.70
     Davidson diagonalization with overlap
     ethr =  1.94E-03,  avg # of iterations =  1.0

     total cpu time spent up to now is      118.4 secs

     total energy              =    -339.60098087 Ry
     estimated scf accuracy    <       0.20895992 Ry

     total magnetization       =     0.38 Bohr mag/cell
     absolute magnetization    =     0.66 Bohr mag/cell

     iteration # 10     ecut=    60.00 Ry     beta= 0.70
     Davidson diagonalization with overlap
     ethr =  1.16E-03,  avg # of iterations =  1.0

     total cpu time spent up to now is      119.8 secs

     total energy              =    -339.56868666 Ry
     estimated scf accuracy    <       0.10634068 Ry

     total magnetization       =     0.38 Bohr mag/cell
     absolute magnetization    =     0.42 Bohr mag/cell

     iteration # 11     ecut=    60.00 Ry     beta= 0.70
     Davidson diagonalization with overlap
     ethr =  5.91E-04,  avg # of iterations =  1.8

     total cpu time spent up to now is      121.4 secs

     total energy              =    -339.58295685 Ry
     estimated scf accuracy    <       0.00108324 Ry

     total magnetization       =     0.44 Bohr mag/cell
     absolute magnetization    =     0.48 Bohr mag/cell

     iteration # 12     ecut=    60.00 Ry     beta= 0.70
     Davidson diagonalization with overlap
     ethr =  6.02E-06,  avg # of iterations =  4.3

     total cpu time spent up to now is      123.8 secs

     total energy              =    -339.58361830 Ry
     estimated scf accuracy    <       0.00069135 Ry

     total magnetization       =     0.47 Bohr mag/cell
     absolute magnetization    =     0.52 Bohr mag/cell

     iteration # 13     ecut=    60.00 Ry     beta= 0.70
     Davidson diagonalization with overlap
     ethr =  3.84E-06,  avg # of iterations =  2.0

     total cpu time spent up to now is      125.6 secs

     total energy              =    -339.58366106 Ry
     estimated scf accuracy    <       0.00576000 Ry

     total magnetization       =     0.55 Bohr mag/cell
     absolute magnetization    =     0.61 Bohr mag/cell

     iteration # 14     ecut=    60.00 Ry     beta= 0.70
     Davidson diagonalization with overlap
     ethr =  3.84E-06,  avg # of iterations =  2.0

     total cpu time spent up to now is      127.4 secs

     total energy              =    -339.58351112 Ry
     estimated scf accuracy    <       0.03444131 Ry

     total magnetization       =     0.53 Bohr mag/cell
     absolute magnetization    =     0.68 Bohr mag/cell

     iteration # 15     ecut=    60.00 Ry     beta= 0.70
     Davidson diagonalization with overlap
     ethr =  3.84E-06,  avg # of iterations =  2.0

     total cpu time spent up to now is      129.2 secs

     total energy              =    -339.58400543 Ry
     estimated scf accuracy    <       0.00151278 Ry

     total magnetization       =     0.56 Bohr mag/cell
     absolute magnetization    =     0.62 Bohr mag/cell

     iteration # 16     ecut=    60.00 Ry     beta= 0.70
     Davidson diagonalization with overlap
     ethr =  3.84E-06,  avg # of iterations =  2.0

     total cpu time spent up to now is      131.0 secs

     total energy              =    -339.58436298 Ry
     estimated scf accuracy    <       0.01400904 Ry

     total magnetization       =     0.56 Bohr mag/cell
     absolute magnetization    =     0.65 Bohr mag/cell

     iteration # 17     ecut=    60.00 Ry     beta= 0.70
     Davidson diagonalization with overlap
     ethr =  3.84E-06,  avg # of iterations =  2.0

     total cpu time spent up to now is      132.7 secs

     total energy              =    -339.58338311 Ry
     estimated scf accuracy    <       0.03088068 Ry

     total magnetization       =     0.56 Bohr mag/cell
     absolute magnetization    =     0.70 Bohr mag/cell

     iteration # 18     ecut=    60.00 Ry     beta= 0.70
     Davidson diagonalization with overlap
     ethr =  3.84E-06,  avg # of iterations =  2.0

     total cpu time spent up to now is      134.5 secs

     total energy              =    -339.58413265 Ry
     estimated scf accuracy    <       0.00016659 Ry

     total magnetization       =     0.62 Bohr mag/cell
     absolute magnetization    =     0.70 Bohr mag/cell

     iteration # 19     ecut=    60.00 Ry     beta= 0.70
     Davidson diagonalization with overlap
     ethr =  9.26E-07,  avg # of iterations =  2.0

     total cpu time spent up to now is      136.3 secs

     total energy              =    -339.58418545 Ry
     estimated scf accuracy    <       0.00879133 Ry

     total magnetization       =     0.61 Bohr mag/cell
     absolute magnetization    =     0.70 Bohr mag/cell

     iteration # 20     ecut=    60.00 Ry     beta= 0.70
     Davidson diagonalization with overlap
     ethr =  9.26E-07,  avg # of iterations =  2.0

     total cpu time spent up to now is      138.1 secs

     total energy              =    -339.58404985 Ry
     estimated scf accuracy    <       0.00538269 Ry

     total magnetization       =     0.60 Bohr mag/cell
     absolute magnetization    =     0.68 Bohr mag/cell

     iteration # 21     ecut=    60.00 Ry     beta= 0.70
     Davidson diagonalization with overlap
     ethr =  9.26E-07,  avg # of iterations =  2.0

     total cpu time spent up to now is      139.8 secs

     total energy              =    -339.58420134 Ry
     estimated scf accuracy    <       0.00004722 Ry

     total magnetization       =     0.62 Bohr mag/cell
     absolute magnetization    =     0.70 Bohr mag/cell

     iteration # 22     ecut=    60.00 Ry     beta= 0.70
     Davidson diagonalization with overlap
     ethr =  2.62E-07,  avg # of iterations =  1.0

     total cpu time spent up to now is      141.3 secs

     total energy              =    -339.58420821 Ry
     estimated scf accuracy    <       0.00001160 Ry

     total magnetization       =     0.63 Bohr mag/cell
     absolute magnetization    =     0.71 Bohr mag/cell

     iteration # 23     ecut=    60.00 Ry     beta= 0.70
     Davidson diagonalization with overlap
     ethr =  6.44E-08,  avg # of iterations =  1.5

     total cpu time spent up to now is      143.0 secs

     total energy              =    -339.58420960 Ry
     estimated scf accuracy    <       0.00001128 Ry

     total magnetization       =     0.63 Bohr mag/cell
     absolute magnetization    =     0.71 Bohr mag/cell

     iteration # 24     ecut=    60.00 Ry     beta= 0.70
     Davidson diagonalization with overlap
     ethr =  6.27E-08,  avg # of iterations =  2.0

     total cpu time spent up to now is      144.8 secs

     total energy              =    -339.58421437 Ry
     estimated scf accuracy    <       0.00009658 Ry

     total magnetization       =     0.63 Bohr mag/cell
     absolute magnetization    =     0.72 Bohr mag/cell

     iteration # 25     ecut=    60.00 Ry     beta= 0.70
     Davidson diagonalization with overlap
     ethr =  6.27E-08,  avg # of iterations =  2.0

     total cpu time spent up to now is      146.5 secs

     total energy              =    -339.58420757 Ry
     estimated scf accuracy    <       0.00034299 Ry

     total magnetization       =     0.63 Bohr mag/cell
     absolute magnetization    =     0.71 Bohr mag/cell

     iteration # 26     ecut=    60.00 Ry     beta= 0.70
     Davidson diagonalization with overlap
     ethr =  6.27E-08,  avg # of iterations =  2.0

     total cpu time spent up to now is      148.2 secs

     total energy              =    -339.58420989 Ry
     estimated scf accuracy    <       0.00005125 Ry

     total magnetization       =     0.63 Bohr mag/cell
     absolute magnetization    =     0.72 Bohr mag/cell

     iteration # 27     ecut=    60.00 Ry     beta= 0.70
     Davidson diagonalization with overlap
     ethr =  6.27E-08,  avg # of iterations =  1.3

     total cpu time spent up to now is      149.8 secs

     total energy              =    -339.58421031 Ry
     estimated scf accuracy    <       0.00001466 Ry

     total magnetization       =     0.63 Bohr mag/cell
     absolute magnetization    =     0.72 Bohr mag/cell

     iteration # 28     ecut=    60.00 Ry     beta= 0.70
     Davidson diagonalization with overlap
     ethr =  6.27E-08,  avg # of iterations =  1.0

     Magnetic moment per site  (integrated on atomic sphere of radius R)
     atom   1 (R=0.364)  charge= 16.1928  magn=  0.6706

     total cpu time spent up to now is      151.2 secs

     End of self-consistent calculation

     Number of k-points >= 100: set verbosity='high' to print the bands.

     the Fermi energy is    19.1845 ev

!    total energy              =    -339.58421088 Ry
     estimated scf accuracy    <       0.00000032 Ry
     smearing contrib. (-TS)   =       0.00008391 Ry
     internal energy E=F+TS    =    -339.58429480 Ry

     The total energy is F=E-TS. E is the sum of the following terms:
     one-electron contribution =    -180.05531601 Ry
     hartree contribution      =     102.26961004 Ry
     xc contribution           =     -34.37543143 Ry
     ewald contribution        =    -227.42315741 Ry

     total magnetization       =     0.63 Bohr mag/cell
     absolute magnetization    =     0.72 Bohr mag/cell

     convergence has been achieved in  28 iterations

     Forces acting on atoms (cartesian axes, Ry/au):

     atom    1 type  1   force =     0.00000000    0.00000000    0.00000000

     Total force =     0.000000     Total SCF correction =     0.000627


     Computing stress (Cartesian axis) and pressure

          total   stress  (Ry/bohr**3)                   (kbar)     P=        2.75
  -0.00017544  -0.00024285   0.00026901          -25.81      -35.72       39.57
  -0.00024285   0.00015810   0.00029831          -35.72       23.26       43.88
   0.00026901   0.00029831   0.00007333           39.57       43.88       10.79

     Energy error            =      1.2E-02 Ry
     Gradient error          =      0.0E+00 Ry/Bohr
     Cell gradient error     =      4.4E+01 kbar

     number of scf cycles    =   3
     number of bfgs steps    =   1

     enthalpy           old  =    -339.5721042636 Ry
     enthalpy           new  =    -339.5842108816 Ry

     CASE: enthalpy          _new < enthalpy          _old

     new trust radius        =       0.0187083640 bohr
     new conv_thr            =       0.0000000010 Ry

     new unit-cell volume =     69.54929 a.u.^3 (    10.30614 Ang^3 )
     density =      9.45676 g/cm^3

CELL_PARAMETERS (bohr)
   4.932505032  -0.069602454   0.079811915
   2.610847377   3.739230971   0.090477809
   2.322324045   0.487737753   3.778316008

ATOMIC_POSITIONS (crystal)
Ni            0.0000000000        0.0000000000        0.0000000000



     Writing config-only to output data dir ./out/pwscf.save/
     NEW-OLD atomic charge density approx. for the potential

     Check: negative core charge=   -0.000003
     extrapolated charge   17.98371, renormalised to   18.00000
     Generating pointlists ...

     total cpu time spent up to now is      151.7 secs

     Self-consistent Calculation

     iteration #  1     ecut=    60.00 Ry     beta= 0.70
     Davidson diagonalization with overlap
     ethr =  1.00E-06,  avg # of iterations =  6.2

     total cpu time spent up to now is      155.5 secs

     total energy              =    -339.58407844 Ry
     estimated scf accuracy    <       0.00160815 Ry

     total magnetization       =     0.62 Bohr mag/cell
     absolute magnetization    =     0.71 Bohr mag/cell

     iteration #  2     ecut=    60.00 Ry     beta= 0.70
     Davidson diagonalization with overlap
     ethr =  8.93E-06,  avg # of iterations =  2.0

     total cpu time spent up to now is      157.6 secs

     total energy              =    -339.58163473 Ry
     estimated scf accuracy    <       0.38818427 Ry

     total magnetization       =     0.63 Bohr mag/cell
     absolute magnetization    =     1.26 Bohr mag/cell

     iteration #  3     ecut=    60.00 Ry     beta= 0.70
     Davidson diagonalization with overlap
     ethr =  8.93E-06,  avg # of iterations =  2.0

     total cpu time spent up to now is      159.4 secs

     total energy              =    -339.58379001 Ry
     estimated scf accuracy    <       0.03267308 Ry

     total magnetization       =     0.64 Bohr mag/cell
     absolute magnetization    =     0.79 Bohr mag/cell

     iteration #  4     ecut=    60.00 Ry     beta= 0.70
     Davidson diagonalization with overlap
     ethr =  8.93E-06,  avg # of iterations =  2.0

     total cpu time spent up to now is      161.2 secs

     total energy              =    -339.58488762 Ry
     estimated scf accuracy    <       0.00900386 Ry

     total magnetization       =     0.63 Bohr mag/cell
     absolute magnetization    =     0.72 Bohr mag/cell

     iteration #  5     ecut=    60.00 Ry     beta= 0.70
     Davidson diagonalization with overlap
     ethr =  8.93E-06,  avg # of iterations =  1.7

     total cpu time spent up to now is      163.0 secs

     total energy              =    -339.58451346 Ry
     estimated scf accuracy    <       0.01938879 Ry

     total magnetization       =     0.63 Bohr mag/cell
     absolute magnetization    =     0.76 Bohr mag/cell

     iteration #  6     ecut=    60.00 Ry     beta= 0.70
     Davidson diagonalization with overlap
     ethr =  8.93E-06,  avg # of iterations =  2.0

     total cpu time spent up to now is      164.7 secs

     total energy              =    -339.58477455 Ry
     estimated scf accuracy    <       0.00060594 Ry

     total magnetization       =     0.63 Bohr mag/cell
     absolute magnetization    =     0.72 Bohr mag/cell

     iteration #  7     ecut=    60.00 Ry     beta= 0.70
     Davidson diagonalization with overlap
     ethr =  3.37E-06,  avg # of iterations =  1.1

     total cpu time spent up to now is      166.2 secs

     total energy              =    -339.58483778 Ry
     estimated scf accuracy    <       0.00013586 Ry

     total magnetization       =     0.63 Bohr mag/cell
     absolute magnetization    =     0.72 Bohr mag/cell

     iteration #  8     ecut=    60.00 Ry     beta= 0.70
     Davidson diagonalization with overlap
     ethr =  7.55E-07,  avg # of iterations =  1.0

     total cpu time spent up to now is      167.6 secs

     total energy              =    -339.58483555 Ry
     estimated scf accuracy    <       0.00023629 Ry

     total magnetization       =     0.63 Bohr mag/cell
     absolute magnetization    =     0.72 Bohr mag/cell

     iteration #  9     ecut=    60.00 Ry     beta= 0.70
     Davidson diagonalization with overlap
     ethr =  7.55E-07,  avg # of iterations =  1.0

     total cpu time spent up to now is      169.0 secs

     total energy              =    -339.58482699 Ry
     estimated scf accuracy    <       0.00010117 Ry

     total magnetization       =     0.63 Bohr mag/cell
     absolute magnetization    =     0.72 Bohr mag/cell

     iteration # 10     ecut=    60.00 Ry     beta= 0.70
     Davidson diagonalization with overlap
     ethr =  5.62E-07,  avg # of iterations =  1.5

     total cpu time spent up to now is      170.7 secs

     total energy              =    -339.58483390 Ry
     estimated scf accuracy    <       0.00003626 Ry

     total magnetization       =     0.63 Bohr mag/cell
     absolute magnetization    =     0.72 Bohr mag/cell

     iteration # 11     ecut=    60.00 Ry     beta= 0.70
     Davidson diagonalization with overlap
     ethr =  2.01E-07,  avg # of iterations =  1.0

     total cpu time spent up to now is      172.1 secs

     total energy              =    -339.58483365 Ry
     estimated scf accuracy    <       0.00001612 Ry

     total magnetization       =     0.63 Bohr mag/cell
     absolute magnetization    =     0.72 Bohr mag/cell

     iteration # 12     ecut=    60.00 Ry     beta= 0.70
     Davidson diagonalization with overlap
     ethr =  8.96E-08,  avg # of iterations =  1.3

     total cpu time spent up to now is      173.6 secs

     total energy              =    -339.58483410 Ry
     estimated scf accuracy    <       0.00000163 Ry

     total magnetization       =     0.63 Bohr mag/cell
     absolute magnetization    =     0.72 Bohr mag/cell

     iteration # 13     ecut=    60.00 Ry     beta= 0.70
     Davidson diagonalization with overlap
     ethr =  9.03E-09,  avg # of iterations =  1.1

     total cpu time spent up to now is      175.1 secs

     total energy              =    -339.58483414 Ry
     estimated scf accuracy    <       0.00000001 Ry

     total magnetization       =     0.63 Bohr mag/cell
     absolute magnetization    =     0.72 Bohr mag/cell

     iteration # 14     ecut=    60.00 Ry     beta= 0.70
     Davidson diagonalization with overlap
     ethr =  7.80E-11,  avg # of iterations =  2.4

     total cpu time spent up to now is      176.9 secs

     total energy              =    -339.58483414 Ry
     estimated scf accuracy    <       0.00000004 Ry

     total magnetization       =     0.63 Bohr mag/cell
     absolute magnetization    =     0.72 Bohr mag/cell

     iteration # 15     ecut=    60.00 Ry     beta= 0.70
     Davidson diagonalization with overlap
     ethr =  7.80E-11,  avg # of iterations =  1.5

     total cpu time spent up to now is      178.6 secs

     total energy              =    -339.58483414 Ry
     estimated scf accuracy    <       0.00000002 Ry

     total magnetization       =     0.63 Bohr mag/cell
     absolute magnetization    =     0.72 Bohr mag/cell

     iteration # 16     ecut=    60.00 Ry     beta= 0.70
     Davidson diagonalization with overlap
     ethr =  7.80E-11,  avg # of iterations =  1.0

     total cpu time spent up to now is      180.0 secs

     total energy              =    -339.58483414 Ry
     estimated scf accuracy    <          7.9E-09 Ry

     total magnetization       =     0.63 Bohr mag/cell
     absolute magnetization    =     0.72 Bohr mag/cell

     iteration # 17     ecut=    60.00 Ry     beta= 0.70
     Davidson diagonalization with overlap
     ethr =  4.38E-11,  avg # of iterations =  1.0

     total cpu time spent up to now is      181.4 secs

     total energy              =    -339.58483414 Ry
     estimated scf accuracy    <          1.5E-09 Ry

     total magnetization       =     0.63 Bohr mag/cell
     absolute magnetization    =     0.72 Bohr mag/cell

     iteration # 18     ecut=    60.00 Ry     beta= 0.70
     Davidson diagonalization with overlap
     ethr =  8.25E-12,  avg # of iterations =  1.9

     total cpu time spent up to now is      183.2 secs

     total energy              =    -339.58483414 Ry
     estimated scf accuracy    <          7.2E-09 Ry

     total magnetization       =     0.63 Bohr mag/cell
     absolute magnetization    =     0.72 Bohr mag/cell

     iteration # 19     ecut=    60.00 Ry     beta= 0.70
     Davidson diagonalization with overlap
     ethr =  8.25E-12,  avg # of iterations =  1.6

     total cpu time spent up to now is      184.9 secs

     total energy              =    -339.58483414 Ry
     estimated scf accuracy    <          2.6E-09 Ry

     total magnetization       =     0.63 Bohr mag/cell
     absolute magnetization    =     0.72 Bohr mag/cell

     iteration # 20     ecut=    60.00 Ry     beta= 0.70
     Davidson diagonalization with overlap
     ethr =  8.25E-12,  avg # of iterations =  1.0

     total cpu time spent up to now is      186.3 secs

     total energy              =    -339.58483414 Ry
     estimated scf accuracy    <          1.2E-09 Ry

     total magnetization       =     0.63 Bohr mag/cell
     absolute magnetization    =     0.72 Bohr mag/cell

     iteration # 21     ecut=    60.00 Ry     beta= 0.70
     Davidson diagonalization with overlap
     ethr =  6.53E-12,  avg # of iterations =  1.0

     Magnetic moment per site  (integrated on atomic sphere of radius R)
     atom   1 (R=0.364)  charge= 16.1921  magn=  0.6700

     total cpu time spent up to now is      187.8 secs

     End of self-consistent calculation

     Number of k-points >= 100: set verbosity='high' to print the bands.

     the Fermi energy is    19.2169 ev

!    total energy              =    -339.58483414 Ry
     estimated scf accuracy    <          5.0E-10 Ry
     smearing contrib. (-TS)   =       0.00002605 Ry
     internal energy E=F+TS    =    -339.58486019 Ry

     The total energy is F=E-TS. E is the sum of the following terms:
     one-electron contribution =    -179.89014569 Ry
     hartree contribution      =     102.19724867 Ry
     xc contribution           =     -34.37485002 Ry
     ewald contribution        =    -227.51711316 Ry

     total magnetization       =     0.63 Bohr mag/cell
     absolute magnetization    =     0.72 Bohr mag/cell

     convergence has been achieved in  21 iterations

     Forces acting on atoms (cartesian axes, Ry/au):

     atom    1 type  1   force =     0.00000000    0.00000000    0.00000000

     Total force =     0.000000     Total SCF correction =     0.000024


     Computing stress (Cartesian axis) and pressure

          total   stress  (Ry/bohr**3)                   (kbar)     P=       -6.24
  -0.00014605  -0.00001761   0.00002370          -21.48       -2.59        3.49
  -0.00001761   0.00002985   0.00018483           -2.59        4.39       27.19
   0.00002370   0.00018483  -0.00001110            3.49       27.19       -1.63

     Energy error            =      6.2E-04 Ry
     Gradient error          =      0.0E+00 Ry/Bohr
     Cell gradient error     =      2.7E+01 kbar

     number of scf cycles    =   4
     number of bfgs steps    =   2

     enthalpy           old  =    -339.5842108816 Ry
     enthalpy           new  =    -339.5848341432 Ry

     CASE: enthalpy          _new < enthalpy          _old

     new trust radius        =       0.0148766948 bohr
     new conv_thr            =       0.0000000010 Ry

     new unit-cell volume =     69.35285 a.u.^3 (    10.27703 Ang^3 )
     density =      9.48354 g/cm^3

CELL_PARAMETERS (bohr)
   4.904594178  -0.079098676   0.091209148
   2.588700558   3.743876496   0.127999030
   2.317037426   0.515712918   3.790039878

ATOMIC_POSITIONS (crystal)
Ni            0.0000000000        0.0000000000        0.0000000000



     Writing config-only to output data dir ./out/pwscf.save/
     NEW-OLD atomic charge density approx. for the potential

     Check: negative core charge=   -0.000003
     extrapolated charge   17.94902, renormalised to   18.00000
     Generating pointlists ...

     total cpu time spent up to now is      188.3 secs

     Self-consistent Calculation

     iteration #  1     ecut=    60.00 Ry     beta= 0.70
     Davidson diagonalization with overlap
     ethr =  1.00E-06,  avg # of iterations =  5.3

     total cpu time spent up to now is      191.8 secs

     total energy              =    -339.57460315 Ry
     estimated scf accuracy    <       0.01214952 Ry

     total magnetization       =     0.59 Bohr mag/cell
     absolute magnetization    =     0.69 Bohr mag/cell

     iteration #  2     ecut=    60.00 Ry     beta= 0.70
     Davidson diagonalization with overlap
     ethr =  6.75E-05,  avg # of iterations =  2.4

     total cpu time spent up to now is      193.9 secs

     total energy              =    -339.58332460 Ry
     estimated scf accuracy    <       0.04676026 Ry

     total magnetization       =     0.66 Bohr mag/cell
     absolute magnetization    =     0.74 Bohr mag/cell

     iteration #  3     ecut=    60.00 Ry     beta= 0.70
     Davidson diagonalization with overlap
     ethr =  6.75E-05,  avg # of iterations =  2.0

     total cpu time spent up to now is      195.6 secs

     total energy              =    -339.58488492 Ry
     estimated scf accuracy    <       0.06158799 Ry

     total magnetization       =     0.64 Bohr mag/cell
     absolute magnetization    =     0.85 Bohr mag/cell

     iteration #  4     ecut=    60.00 Ry     beta= 0.70
     Davidson diagonalization with overlap
     ethr =  6.75E-05,  avg # of iterations =  2.0

     total cpu time spent up to now is      197.3 secs

     total energy              =    -339.58555114 Ry
     estimated scf accuracy    <       0.00598510 Ry

     total magnetization       =     0.64 Bohr mag/cell
     absolute magnetization    =     0.73 Bohr mag/cell

     iteration #  5     ecut=    60.00 Ry     beta= 0.70
     Davidson diagonalization with overlap
     ethr =  3.33E-05,  avg # of iterations =  1.0

     total cpu time spent up to now is      198.7 secs

     total energy              =    -339.58509146 Ry
     estimated scf accuracy    <       0.00364039 Ry

     total magnetization       =     0.64 Bohr mag/cell
     absolute magnetization    =     0.72 Bohr mag/cell

     iteration #  6     ecut=    60.00 Ry     beta= 0.70
     Davidson diagonalization with overlap
     ethr =  2.02E-05,  avg # of iterations =  1.0

     total cpu time spent up to now is      200.1 secs

     total energy              =    -339.58513315 Ry
     estimated scf accuracy    <       0.00201305 Ry

     total magnetization       =     0.63 Bohr mag/cell
     absolute magnetization    =     0.72 Bohr mag/cell

     iteration #  7     ecut=    60.00 Ry     beta= 0.70
     Davidson diagonalization with overlap
     ethr =  1.12E-05,  avg # of iterations =  1.0

     total cpu time spent up to now is      201.6 secs

     total energy              =    -339.58510375 Ry
     estimated scf accuracy    <       0.00082479 Ry

     total magnetization       =     0.63 Bohr mag/cell
     absolute magnetization    =     0.72 Bohr mag/cell

     iteration #  8     ecut=    60.00 Ry     beta= 0.70
     Davidson diagonalization with overlap
     ethr =  4.58E-06,  avg # of iterations =  1.0

     total cpu time spent up to now is      203.0 secs

     total energy              =    -339.58507807 Ry
     estimated scf accuracy    <       0.00058293 Ry

     total magnetization       =     0.63 Bohr mag/cell
     absolute magnetization    =     0.72 Bohr mag/cell

     iteration #  9     ecut=    60.00 Ry     beta= 0.70
     Davidson diagonalization with overlap
     ethr =  3.24E-06,  avg # of iterations =  1.0

     total cpu time spent up to now is      204.4 secs

     total energy              =    -339.58497897 Ry
     estimated scf accuracy    <       0.00042510 Ry

     total magnetization       =     0.63 Bohr mag/cell
     absolute magnetization    =     0.72 Bohr mag/cell

     iteration # 10     ecut=    60.00 Ry     beta= 0.70
     Davidson diagonalization with overlap
     ethr =  2.36E-06,  avg # of iterations =  1.0

     total cpu time spent up to now is      205.8 secs

     total energy              =    -339.58499881 Ry
     estimated scf accuracy    <       0.00011229 Ry

     total magnetization       =     0.63 Bohr mag/cell
     absolute magnetization    =     0.72 Bohr mag/cell

     iteration # 11     ecut=    60.00 Ry     beta= 0.70
     Davidson diagonalization with overlap
     ethr =  6.24E-07,  avg # of iterations =  1.1

     total cpu time spent up to now is      207.3 secs

     total energy              =    -339.58500530 Ry
     estimated scf accuracy    <       0.00000524 Ry

     total magnetization       =     0.63 Bohr mag/cell
     absolute magnetization    =     0.72 Bohr mag/cell

     iteration # 12     ecut=    60.00 Ry     beta= 0.70
     Davidson diagonalization with overlap
     ethr =  2.91E-08,  avg # of iterations =  1.9

     total cpu time spent up to now is      208.9 secs

     total energy              =    -339.58500569 Ry
     estimated scf accuracy    <       0.00000147 Ry

     total magnetization       =     0.63 Bohr mag/cell
     absolute magnetization    =     0.72 Bohr mag/cell

     iteration # 13     ecut=    60.00 Ry     beta= 0.70
     Davidson diagonalization with overlap
     ethr =  8.19E-09,  avg # of iterations =  1.3

     total cpu time spent up to now is      210.4 secs

     total energy              =    -339.58500574 Ry
     estimated scf accuracy    <       0.00000043 Ry

     total magnetization       =     0.63 Bohr mag/cell
     absolute magnetization    =     0.72 Bohr mag/cell

     iteration # 14     ecut=    60.00 Ry     beta= 0.70
     Davidson diagonalization with overlap
     ethr =  2.38E-09,  avg # of iterations =  1.8

     total cpu time spent up to now is      212.0 secs

     total energy              =    -339.58500576 Ry
     estimated scf accuracy    <       0.00000002 Ry

     total magnetization       =     0.63 Bohr mag/cell
     absolute magnetization    =     0.72 Bohr mag/cell

     iteration # 15     ecut=    60.00 Ry     beta= 0.70
     Davidson diagonalization with overlap
     ethr =  1.32E-10,  avg # of iterations =  4.4

     total cpu time spent up to now is      214.2 secs

     total energy              =    -339.58500577 Ry
     estimated scf accuracy    <       0.00000005 Ry

     total magnetization       =     0.63 Bohr mag/cell
     absolute magnetization    =     0.72 Bohr mag/cell

     iteration # 16     ecut=    60.00 Ry     beta= 0.70
     Davidson diagonalization with overlap
     ethr =  1.32E-10,  avg # of iterations =  2.0

     total cpu time spent up to now is      216.0 secs

     total energy              =    -339.58500576 Ry
     estimated scf accuracy    <       0.00000042 Ry

     total magnetization       =     0.63 Bohr mag/cell
     absolute magnetization    =     0.72 Bohr mag/cell

     iteration # 17     ecut=    60.00 Ry     beta= 0.70
     Davidson diagonalization with overlap
     ethr =  1.32E-10,  avg # of iterations =  2.0

     total cpu time spent up to now is      217.7 secs

     total energy              =    -339.58500577 Ry
     estimated scf accuracy    <       0.00000003 Ry

     total magnetization       =     0.63 Bohr mag/cell
     absolute magnetization    =     0.72 Bohr mag/cell

     iteration # 18     ecut=    60.00 Ry     beta= 0.70
     Davidson diagonalization with overlap
     ethr =  1.32E-10,  avg # of iterations =  1.0

     total cpu time spent up to now is      219.1 secs

     total energy              =    -339.58500577 Ry
     estimated scf accuracy    <       0.00000001 Ry

     total magnetization       =     0.63 Bohr mag/cell
     absolute magnetization    =     0.72 Bohr mag/cell

     iteration # 19     ecut=    60.00 Ry     beta= 0.70
     Davidson diagonalization with overlap
     ethr =  8.08E-11,  avg # of iterations =  1.0

     total cpu time spent up to now is      220.6 secs

     total energy              =    -339.58500577 Ry
     estimated scf accuracy    <          4.0E-09 Ry

     total magnetization       =     0.63 Bohr mag/cell
     absolute magnetization    =     0.72 Bohr mag/cell

     iteration # 20     ecut=    60.00 Ry     beta= 0.70
     Davidson diagonalization with overlap
     ethr =  2.25E-11,  avg # of iterations =  1.0

     total cpu time spent up to now is      222.0 secs

     total energy              =    -339.58500577 Ry
     estimated scf accuracy    <          9.0E-09 Ry

     total magnetization       =     0.63 Bohr mag/cell
     absolute magnetization    =     0.72 Bohr mag/cell

     iteration # 21     ecut=    60.00 Ry     beta= 0.70
     Davidson diagonalization with overlap
     ethr =  2.25E-11,  avg # of iterations =  1.0

     total cpu time spent up to now is      223.4 secs

     total energy              =    -339.58500577 Ry
     estimated scf accuracy    <          3.7E-09 Ry

     total magnetization       =     0.63 Bohr mag/cell
     absolute magnetization    =     0.72 Bohr mag/cell

     iteration # 22     ecut=    60.00 Ry     beta= 0.70
     Davidson diagonalization with overlap
     ethr =  2.05E-11,  avg # of iterations =  1.0

     total cpu time spent up to now is      224.8 secs

     total energy              =    -339.58500577 Ry
     estimated scf accuracy    <          1.3E-09 Ry

     total magnetization       =     0.63 Bohr mag/cell
     absolute magnetization    =     0.72 Bohr mag/cell

     iteration # 23     ecut=    60.00 Ry     beta= 0.70
     Davidson diagonalization with overlap
     ethr =  7.46E-12,  avg # of iterations =  1.0

     Magnetic moment per site  (integrated on atomic sphere of radius R)
     atom   1 (R=0.364)  charge= 16.1937  magn=  0.6732

     total cpu time spent up to now is      226.3 secs

     End of self-consistent calculation

     Number of k-points >= 100: set verbosity='high' to print the bands.

     the Fermi energy is    19.2962 ev

!    total energy              =    -339.58500577 Ry
     estimated scf accuracy    <          8.9E-11 Ry
     smearing contrib. (-TS)   =      -0.00001178 Ry
     internal energy E=F+TS    =    -339.58499399 Ry

     The total energy is F=E-TS. E is the sum of the following terms:
     one-electron contribution =    -179.52543200 Ry
     hartree contribution      =     102.05275176 Ry
     xc contribution           =     -34.37597424 Ry
     ewald contribution        =    -227.73633950 Ry

     total magnetization       =     0.63 Bohr mag/cell
     absolute magnetization    =     0.72 Bohr mag/cell

     convergence has been achieved in  23 iterations

     Forces acting on atoms (cartesian axes, Ry/au):

     atom    1 type  1   force =     0.00000000    0.00000000    0.00000000

     Total force =     0.000000     Total SCF correction =     0.000012


     Computing stress (Cartesian axis) and pressure

          total   stress  (Ry/bohr**3)                   (kbar)     P=       -7.51
  -0.00007082   0.00003004  -0.00003856          -10.42        4.42       -5.67
   0.00003004  -0.00003518   0.00004215            4.42       -5.17        6.20
  -0.00003856   0.00004215  -0.00004715           -5.67        6.20       -6.94

     Energy error            =      1.7E-04 Ry
     Gradient error          =      0.0E+00 Ry/Bohr
     Cell gradient error     =      1.0E+01 kbar

     number of scf cycles    =   5
     number of bfgs steps    =   3

     enthalpy           old  =    -339.5848341432 Ry
     enthalpy           new  =    -339.5850057681 Ry

     CASE: enthalpy          _new < enthalpy          _old

     new trust radius        =       0.0038327374 bohr
     new conv_thr            =       0.0000000010 Ry

     new unit-cell volume =     69.20140 a.u.^3 (    10.25459 Ang^3 )
     density =      9.50430 g/cm^3

CELL_PARAMETERS (bohr)
   4.895061302  -0.077565914   0.088816891
   2.584749404   3.745502493   0.135103141
   2.310990549   0.524850462   3.788572729

ATOMIC_POSITIONS (crystal)
Ni            0.0000000000        0.0000000000        0.0000000000



     Writing config-only to output data dir ./out/pwscf.save/
     NEW-OLD atomic charge density approx. for the potential

     Check: negative core charge=   -0.000003
     extrapolated charge   17.96061, renormalised to   18.00000
     Generating pointlists ...

     total cpu time spent up to now is      226.8 secs

     Self-consistent Calculation

     iteration #  1     ecut=    60.00 Ry     beta= 0.70
     Davidson diagonalization with overlap
     ethr =  1.00E-06,  avg # of iterations =  3.8

     total cpu time spent up to now is      229.6 secs

     total energy              =    -339.57875984 Ry
     estimated scf accuracy    <       0.00734120 Ry

     total magnetization       =     0.60 Bohr mag/cell
     absolute magnetization    =     0.70 Bohr mag/cell

     iteration #  2     ecut=    60.00 Ry     beta= 0.70
     Davidson diagonalization with overlap
     ethr =  4.08E-05,  avg # of iterations =  2.4

     total cpu time spent up to now is      231.6 secs

     total energy              =    -339.58390725 Ry
     estimated scf accuracy    <       0.02777555 Ry

     total magnetization       =     0.66 Bohr mag/cell
     absolute magnetization    =     0.74 Bohr mag/cell

     iteration #  3     ecut=    60.00 Ry     beta= 0.70
     Davidson diagonalization with overlap
     ethr =  4.08E-05,  avg # of iterations =  2.0

     total cpu time spent up to now is      233.3 secs

     total energy              =    -339.58555568 Ry
     estimated scf accuracy    <       0.01062447 Ry

     total magnetization       =     0.64 Bohr mag/cell
     absolute magnetization    =     0.74 Bohr mag/cell

     iteration #  4     ecut=    60.00 Ry     beta= 0.70
     Davidson diagonalization with overlap
     ethr =  4.08E-05,  avg # of iterations =  1.0

     total cpu time spent up to now is      234.7 secs

     total energy              =    -339.58522655 Ry
     estimated scf accuracy    <       0.00352390 Ry

     total magnetization       =     0.64 Bohr mag/cell
     absolute magnetization    =     0.73 Bohr mag/cell

     iteration #  5     ecut=    60.00 Ry     beta= 0.70
     Davidson diagonalization with overlap
     ethr =  1.96E-05,  avg # of iterations =  1.0

     total cpu time spent up to now is      236.2 secs

     total energy              =    -339.58513667 Ry
     estimated scf accuracy    <       0.00161984 Ry

     total magnetization       =     0.64 Bohr mag/cell
     absolute magnetization    =     0.72 Bohr mag/cell

     iteration #  6     ecut=    60.00 Ry     beta= 0.70
     Davidson diagonalization with overlap
     ethr =  9.00E-06,  avg # of iterations =  1.0

     total cpu time spent up to now is      237.6 secs

     total energy              =    -339.58511215 Ry
     estimated scf accuracy    <       0.00129541 Ry

     total magnetization       =     0.63 Bohr mag/cell
     absolute magnetization    =     0.72 Bohr mag/cell

     iteration #  7     ecut=    60.00 Ry     beta= 0.70
     Davidson diagonalization with overlap
     ethr =  7.20E-06,  avg # of iterations =  1.0

     total cpu time spent up to now is      239.0 secs

     total energy              =    -339.58509919 Ry
     estimated scf accuracy    <       0.00055903 Ry

     total magnetization       =     0.63 Bohr mag/cell
     absolute magnetization    =     0.72 Bohr mag/cell

     iteration #  8     ecut=    60.00 Ry     beta= 0.70
     Davidson diagonalization with overlap
     ethr =  3.11E-06,  avg # of iterations =  1.0

     total cpu time spent up to now is      240.4 secs

     total energy              =    -339.58510152 Ry
     estimated scf accuracy    <       0.00042268 Ry

     total magnetization       =     0.63 Bohr mag/cell
     absolute magnetization    =     0.72 Bohr mag/cell

     iteration #  9     ecut=    60.00 Ry     beta= 0.70
     Davidson diagonalization with overlap
     ethr =  2.35E-06,  avg # of iterations =  1.0

     total cpu time spent up to now is      241.9 secs

     total energy              =    -339.58507064 Ry
     estimated scf accuracy    <       0.00042450 Ry

     total magnetization       =     0.63 Bohr mag/cell
     absolute magnetization    =     0.72 Bohr mag/cell

     iteration # 10     ecut=    60.00 Ry     beta= 0.70
     Davidson diagonalization with overlap
     ethr =  2.35E-06,  avg # of iterations =  1.0

     total cpu time spent up to now is      243.3 secs

     total energy              =    -339.58497799 Ry
     estimated scf accuracy    <       0.00027714 Ry

     total magnetization       =     0.63 Bohr mag/cell
     absolute magnetization    =     0.72 Bohr mag/cell

     iteration # 11     ecut=    60.00 Ry     beta= 0.70
     Davidson diagonalization with overlap
     ethr =  1.54E-06,  avg # of iterations =  1.7

     total cpu time spent up to now is      244.9 secs

     total energy              =    -339.58501972 Ry
     estimated scf accuracy    <       0.00000289 Ry

     total magnetization       =     0.63 Bohr mag/cell
     absolute magnetization    =     0.72 Bohr mag/cell

     iteration # 12     ecut=    60.00 Ry     beta= 0.70
     Davidson diagonalization with overlap
     ethr =  1.61E-08,  avg # of iterations =  2.4

     total cpu time spent up to now is      246.8 secs

     total energy              =    -339.58502070 Ry
     estimated scf accuracy    <       0.00000110 Ry

     total magnetization       =     0.63 Bohr mag/cell
     absolute magnetization    =     0.72 Bohr mag/cell

     iteration # 13     ecut=    60.00 Ry     beta= 0.70
     Davidson diagonalization with overlap
[...]

     total magnetization       =     0.63 Bohr mag/cell
     absolute magnetization    =     0.72 Bohr mag/cell

     iteration # 10     ecut=    60.00 Ry     beta= 0.70
     Davidson diagonalization with overlap
     ethr =  3.50E-09,  avg # of iterations =  1.1

     total cpu time spent up to now is      288.5 secs

     total energy              =    -339.58502152 Ry
     estimated scf accuracy    <       0.00000036 Ry

     total magnetization       =     0.63 Bohr mag/cell
     absolute magnetization    =     0.72 Bohr mag/cell

     iteration # 11     ecut=    60.00 Ry     beta= 0.70
     Davidson diagonalization with overlap
     ethr =  1.99E-09,  avg # of iterations =  1.0

     total cpu time spent up to now is      290.0 secs

     total energy              =    -339.58502152 Ry
     estimated scf accuracy    <       0.00000040 Ry

     total magnetization       =     0.63 Bohr mag/cell
     absolute magnetization    =     0.72 Bohr mag/cell

     iteration # 12     ecut=    60.00 Ry     beta= 0.70
     Davidson diagonalization with overlap
     ethr =  1.99E-09,  avg # of iterations =  1.0

     total cpu time spent up to now is      291.4 secs

     total energy              =    -339.58502153 Ry
     estimated scf accuracy    <       0.00000002 Ry

     total magnetization       =     0.63 Bohr mag/cell
     absolute magnetization    =     0.72 Bohr mag/cell

     iteration # 13     ecut=    60.00 Ry     beta= 0.70
     Davidson diagonalization with overlap
     ethr =  9.82E-11,  avg # of iterations =  1.0

     Magnetic moment per site  (integrated on atomic sphere of radius R)
     atom   1 (R=0.364)  charge= 16.1955  magn=  0.6742

     total cpu time spent up to now is      292.8 secs

     End of self-consistent calculation

     Number of k-points >= 100: set verbosity='high' to print the bands.

     the Fermi energy is    19.3537 ev

!    total energy              =    -339.58502153 Ry
     estimated scf accuracy    <          3.8E-10 Ry
     smearing contrib. (-TS)   =      -0.00001995 Ry
     internal energy E=F+TS    =    -339.58500158 Ry

     The total energy is F=E-TS. E is the sum of the following terms:
     one-electron contribution =    -179.24672192 Ry
     hartree contribution      =     101.94594587 Ry
     xc contribution           =     -34.37741596 Ry
     ewald contribution        =    -227.90680957 Ry

     total magnetization       =     0.63 Bohr mag/cell
     absolute magnetization    =     0.72 Bohr mag/cell

     convergence has been achieved in  13 iterations

     Forces acting on atoms (cartesian axes, Ry/au):

     atom    1 type  1   force =     0.00000000    0.00000000    0.00000000

     Total force =     0.000000     Total SCF correction =     0.000019


     Computing stress (Cartesian axis) and pressure

          total   stress  (Ry/bohr**3)                   (kbar)     P=        0.31
   0.00000189   0.00000186  -0.00000253            0.28        0.27       -0.37
   0.00000186   0.00000233  -0.00000008            0.27        0.34       -0.01
  -0.00000253  -0.00000008   0.00000202           -0.37       -0.01        0.30

     Energy error            =      7.7E-07 Ry
     Gradient error          =      0.0E+00 Ry/Bohr
     Cell gradient error     =      3.7E-01 kbar

     bfgs converged in   7 scf cycles and   5 bfgs steps
     (criteria: energy <  1.0E-05 Ry, force <  1.0E-04 Ry/Bohr, cell <  5.0E-01 kbar)

     End of BFGS Geometry Optimization

     Final enthalpy           =    -339.5850215300 Ry

     File ./out/pwscf.bfgs deleted, as requested
Begin final coordinates
     new unit-cell volume =     69.19576 a.u.^3 (    10.25375 Ang^3 )
     density =      9.50507 g/cm^3

CELL_PARAMETERS (bohr)
   4.894649706  -0.075930988   0.087087348
   2.585761901   3.746302303   0.134596235
   2.309659533   0.526019146   3.787855539

ATOMIC_POSITIONS (crystal)
Ni            0.0000000000        0.0000000000        0.0000000000
End final coordinates



     Writing config-only to output data dir ./out/pwscf.save/

     Final scf calculation at the relaxed structure.
     The G-vectors are recalculated for the final unit cell
     Results may differ from those at the preceding step.

     Parallelization info
     --------------------
     sticks:   dense  smooth     PW     G-vecs:    dense   smooth      PW
     Min          58      29     10                 1023      360      79
     Max          59      30     11                 1025      361      81
     Sum         707     353    131                12295     4327     969

     Using Slab Decomposition



     bravais-lattice index     =            0
     lattice parameter (alat)  =       4.8119  a.u.
     unit-cell volume          =      69.1958 (a.u.)^3
     number of atoms/cell      =            1
     number of atomic types    =            1
     number of electrons       =        18.00
     number of Kohn-Sham states=           13
     kinetic-energy cutoff     =      60.0000  Ry
     charge density cutoff     =     480.0000  Ry
     scf convergence threshold =      1.0E-09
     mixing beta               =       0.7000
     number of iterations used =            8  TF        mixing
     press convergence thresh. =      5.0E-01
     Exchange-correlation= PBE
                           (   1   4   3   4   0   0   0)

     celldm(1)=   4.811923  celldm(2)=   0.000000  celldm(3)=   0.000000
     celldm(4)=   0.000000  celldm(5)=   0.000000  celldm(6)=   0.000000

     crystal axes: (cart. coord. in units of alat)
               a(1) = (   1.017192  -0.015780   0.018098 )  
               a(2) = (   0.537366   0.778546   0.027971 )  
               a(3) = (   0.479987   0.109316   0.787181 )  

     reciprocal axes: (cart. coord. in units 2 pi/alat)
               b(1) = (  0.981891 -0.659498 -0.507127 )  
               b(2) = (  0.023187  1.275313 -0.191241 )  
               b(3) = ( -0.023399 -0.030154  1.288810 )  


     PseudoPot. # 1 for Ni read from file:
     /home/jmgoff/work/automation/qe_pseudos/Ni.upf
     MD5 check sum: caf20d35bef94d268ef04de15446df97
     Pseudo is Ultrasoft + core correction, Zval = 18.0
     Generated using 'atomic' code by A. Dal Corso  v.7.1
     Using radial grid of 1195 points,  6 beta functions with: 
                l(1) =   0
                l(2) =   0
                l(3) =   1
                l(4) =   1
                l(5) =   2
                l(6) =   2
     Q(r) pseudized with 0 coefficients 


     atomic species   valence    mass     pseudopotential
        Ni            18.00    58.69340     Ni( 1.00)

     Starting magnetic structure 
     atomic species   magnetization
        Ni           0.042

     No symmetry found



   Cartesian axes

     site n.     atom                  positions (alat units)
         1           Ni  tau(   1) = (   0.0000000   0.0000000   0.0000000  )

     number of k points=   496  Marzari-Vanderbilt smearing, width (Ry)=  0.0100

     Number of k-points >= 100: set verbosity='high' to print them.

     Dense  grid:    12295 G-vectors     FFT dimensions: (  36,  32,  32)

     Smooth grid:     4327 G-vectors     FFT dimensions: (  25,  24,  24)

     Estimated max dynamical RAM per process >      10.66 MB

     Estimated total dynamical RAM >     249.95 MB

     Check: negative core charge=   -0.000001
     Generating pointlists ...

     Initial potential from superposition of free atoms

     starting charge      17.9998, renormalised to      18.0000
     Starting wfcs are   10 randomized atomic wfcs +    3 random wfcs

     total cpu time spent up to now is      293.9 secs

     Self-consistent Calculation

     iteration #  1     ecut=    60.00 Ry     beta= 0.70
     Davidson diagonalization with overlap
     c_bands:  1 eigenvalues not converged
     ethr =  1.00E-06,  avg # of iterations = 10.4

     total cpu time spent up to now is      299.6 secs

     total energy              =    -339.58932016 Ry
     estimated scf accuracy    <       0.00248409 Ry

     total magnetization       =     0.62 Bohr mag/cell
     absolute magnetization    =     0.65 Bohr mag/cell

     iteration #  2     ecut=    60.00 Ry     beta= 0.70
     Davidson diagonalization with overlap
     ethr =  1.38E-05,  avg # of iterations =  1.2

     total cpu time spent up to now is      301.2 secs

     total energy              =    -339.58967451 Ry
     estimated scf accuracy    <       0.00052573 Ry

     total magnetization       =     0.62 Bohr mag/cell
     absolute magnetization    =     0.67 Bohr mag/cell

     iteration #  3     ecut=    60.00 Ry     beta= 0.70
     Davidson diagonalization with overlap
     ethr =  2.92E-06,  avg # of iterations =  2.0

     total cpu time spent up to now is      303.1 secs

     total energy              =    -339.58982402 Ry
     estimated scf accuracy    <       0.00033238 Ry

     total magnetization       =     0.61 Bohr mag/cell
     absolute magnetization    =     0.69 Bohr mag/cell

     iteration #  4     ecut=    60.00 Ry     beta= 0.70
     Davidson diagonalization with overlap
     ethr =  1.85E-06,  avg # of iterations =  2.0

     total cpu time spent up to now is      305.0 secs

     total energy              =    -339.58966044 Ry
     estimated scf accuracy    <       0.01287599 Ry

     total magnetization       =     0.62 Bohr mag/cell
     absolute magnetization    =     0.73 Bohr mag/cell

     iteration #  5     ecut=    60.00 Ry     beta= 0.70
     Davidson diagonalization with overlap
     ethr =  1.85E-06,  avg # of iterations =  2.0

     total cpu time spent up to now is      306.9 secs

     total energy              =    -339.58987426 Ry
     estimated scf accuracy    <       0.00001921 Ry

     total magnetization       =     0.62 Bohr mag/cell
     absolute magnetization    =     0.70 Bohr mag/cell

     iteration #  6     ecut=    60.00 Ry     beta= 0.70
     Davidson diagonalization with overlap
     ethr =  1.07E-07,  avg # of iterations =  2.0

     total cpu time spent up to now is      308.8 secs

     total energy              =    -339.58987717 Ry
     estimated scf accuracy    <       0.00035640 Ry

     total magnetization       =     0.63 Bohr mag/cell
     absolute magnetization    =     0.71 Bohr mag/cell

     iteration #  7     ecut=    60.00 Ry     beta= 0.70
     Davidson diagonalization with overlap
     ethr =  1.07E-07,  avg # of iterations =  2.0

     total cpu time spent up to now is      310.7 secs

     total energy              =    -339.58988504 Ry
     estimated scf accuracy    <       0.00024089 Ry

     total magnetization       =     0.63 Bohr mag/cell
     absolute magnetization    =     0.71 Bohr mag/cell

     iteration #  8     ecut=    60.00 Ry     beta= 0.70
     Davidson diagonalization with overlap
     ethr =  1.07E-07,  avg # of iterations =  1.0

     total cpu time spent up to now is      312.2 secs

     total energy              =    -339.58988066 Ry
     estimated scf accuracy    <       0.00018175 Ry

     total magnetization       =     0.63 Bohr mag/cell
     absolute magnetization    =     0.71 Bohr mag/cell

     iteration #  9     ecut=    60.00 Ry     beta= 0.70
     Davidson diagonalization with overlap
     ethr =  1.07E-07,  avg # of iterations =  2.0

     total cpu time spent up to now is      314.1 secs

     total energy              =    -339.58988692 Ry
     estimated scf accuracy    <       0.00007765 Ry

     total magnetization       =     0.63 Bohr mag/cell
     absolute magnetization    =     0.72 Bohr mag/cell

     iteration # 10     ecut=    60.00 Ry     beta= 0.70
     Davidson diagonalization with overlap
     ethr =  1.07E-07,  avg # of iterations =  1.1

     total cpu time spent up to now is      315.6 secs

     total energy              =    -339.58988410 Ry
     estimated scf accuracy    <       0.00015246 Ry

     total magnetization       =     0.63 Bohr mag/cell
     absolute magnetization    =     0.72 Bohr mag/cell

     iteration # 11     ecut=    60.00 Ry     beta= 0.70
     Davidson diagonalization with overlap
     ethr =  1.07E-07,  avg # of iterations =  2.0

     total cpu time spent up to now is      317.4 secs

     total energy              =    -339.58988425 Ry
     estimated scf accuracy    <       0.00003853 Ry

     total magnetization       =     0.63 Bohr mag/cell
     absolute magnetization    =     0.72 Bohr mag/cell

     iteration # 12     ecut=    60.00 Ry     beta= 0.70
     Davidson diagonalization with overlap
     ethr =  1.07E-07,  avg # of iterations =  1.9

     total cpu time spent up to now is      319.2 secs

     total energy              =    -339.58988554 Ry
     estimated scf accuracy    <       0.00000848 Ry

     total magnetization       =     0.63 Bohr mag/cell
     absolute magnetization    =     0.72 Bohr mag/cell

     iteration # 13     ecut=    60.00 Ry     beta= 0.70
     Davidson diagonalization with overlap
     ethr =  4.71E-08,  avg # of iterations =  1.0

     total cpu time spent up to now is      320.7 secs

     total energy              =    -339.58988559 Ry
     estimated scf accuracy    <       0.00000207 Ry

     total magnetization       =     0.63 Bohr mag/cell
     absolute magnetization    =     0.72 Bohr mag/cell

     iteration # 14     ecut=    60.00 Ry     beta= 0.70
     Davidson diagonalization with overlap
     ethr =  1.15E-08,  avg # of iterations =  1.0

     total cpu time spent up to now is      322.2 secs

     total energy              =    -339.58988560 Ry
     estimated scf accuracy    <       0.00000059 Ry

     total magnetization       =     0.63 Bohr mag/cell
     absolute magnetization    =     0.72 Bohr mag/cell

     iteration # 15     ecut=    60.00 Ry     beta= 0.70
     Davidson diagonalization with overlap
     ethr =  3.27E-09,  avg # of iterations =  1.0

     total cpu time spent up to now is      323.7 secs

     total energy              =    -339.58988562 Ry
     estimated scf accuracy    <          6.5E-09 Ry

     total magnetization       =     0.63 Bohr mag/cell
     absolute magnetization    =     0.72 Bohr mag/cell

     iteration # 16     ecut=    60.00 Ry     beta= 0.70
     Davidson diagonalization with overlap
     ethr =  3.60E-11,  avg # of iterations =  1.5

     total cpu time spent up to now is      325.5 secs

     total energy              =    -339.58988562 Ry
     estimated scf accuracy    <          2.1E-09 Ry

     total magnetization       =     0.63 Bohr mag/cell
     absolute magnetization    =     0.72 Bohr mag/cell

     iteration # 17     ecut=    60.00 Ry     beta= 0.70
     Davidson diagonalization with overlap
     ethr =  1.17E-11,  avg # of iterations =  1.4

     total cpu time spent up to now is      327.2 secs

     total energy              =    -339.58988562 Ry
     estimated scf accuracy    <          2.6E-09 Ry

     total magnetization       =     0.63 Bohr mag/cell
     absolute magnetization    =     0.72 Bohr mag/cell

     iteration # 18     ecut=    60.00 Ry     beta= 0.70
     Davidson diagonalization with overlap
     ethr =  1.17E-11,  avg # of iterations =  1.0

     Magnetic moment per site  (integrated on atomic sphere of radius R)
     atom   1 (R=0.364)  charge= 16.1949  magn=  0.6752

     total cpu time spent up to now is      328.7 secs

     End of self-consistent calculation

     Number of k-points >= 100: set verbosity='high' to print the bands.

     the Fermi energy is    19.3538 ev

!    total energy              =    -339.58988562 Ry
     estimated scf accuracy    <          1.4E-10 Ry
     smearing contrib. (-TS)   =      -0.00002100 Ry
     internal energy E=F+TS    =    -339.58986462 Ry

     The total energy is F=E-TS. E is the sum of the following terms:
     one-electron contribution =    -179.25179756 Ry
     hartree contribution      =     101.94480320 Ry
     xc contribution           =     -34.37606069 Ry
     ewald contribution        =    -227.90680957 Ry

     total magnetization       =     0.63 Bohr mag/cell
     absolute magnetization    =     0.72 Bohr mag/cell

     convergence has been achieved in  18 iterations

     Forces acting on atoms (cartesian axes, Ry/au):

     atom    1 type  1   force =     0.00000000    0.00000000    0.00000000

     Total force =     0.000000     Total SCF correction =     0.000007


     Computing stress (Cartesian axis) and pressure

          total   stress  (Ry/bohr**3)                   (kbar)     P=      131.95
   0.00062010  -0.00019262   0.00022337           91.22      -28.34       32.86
  -0.00019262   0.00108426   0.00041241          -28.34      159.50       60.67
   0.00022337   0.00041241   0.00098658           32.86       60.67      145.13


     Writing all to output data dir ./out/pwscf.save/

     init_run     :      1.09s CPU      1.34s WALL (       2 calls)
     electrons    :    262.52s CPU    323.80s WALL (       8 calls)
     update_pot   :      0.29s CPU      0.31s WALL (       6 calls)
     forces       :      0.80s CPU      1.11s WALL (       8 calls)
     stress       :      1.84s CPU      1.97s WALL (       8 calls)

     Called by init_run:
     wfcinit      :      0.88s CPU      1.09s WALL (       2 calls)
     potinit      :      0.03s CPU      0.03s WALL (       2 calls)
     hinit0       :      0.16s CPU      0.20s WALL (       2 calls)

     Called by electrons:
     c_bands      :    226.97s CPU    279.79s WALL (     186 calls)
     sum_band     :     33.98s CPU     42.29s WALL (     186 calls)
     v_of_rho     :      1.02s CPU      1.07s WALL (     193 calls)
     newd         :      0.37s CPU      0.39s WALL (     193 calls)
     mix_rho      :      0.11s CPU      0.17s WALL (     186 calls)

     Called by c_bands:
     init_us_2    :      2.34s CPU      2.91s WALL (  193440 calls)
     init_us_2:cp :      2.11s CPU      2.67s WALL (  193440 calls)
     cegterg      :    218.41s CPU    267.45s WALL (   92256 calls)

     Called by *egterg:
     cdiaghg      :     33.98s CPU     40.58s WALL (  254822 calls)
     h_psi        :    148.17s CPU    182.47s WALL (  259286 calls)
     s_psi        :      4.54s CPU      5.56s WALL (  259286 calls)
     g_psi        :      0.32s CPU      0.39s WALL (  166038 calls)

     Called by h_psi:
     h_psi:calbec :      8.12s CPU      9.97s WALL (  259286 calls)
     vloc_psi     :    134.88s CPU    166.19s WALL (  259286 calls)
     add_vuspsi   :      4.22s CPU      5.18s WALL (  259286 calls)

     General routines
     calbec       :     11.52s CPU     14.40s WALL (  371382 calls)
     fft          :      0.33s CPU      0.38s WALL (    5137 calls)
     ffts         :      0.02s CPU      0.03s WALL (     758 calls)
     fftw         :    152.98s CPU    188.90s WALL ( 6815352 calls)
     interpolate  :      0.04s CPU      0.04s WALL (     386 calls)

     Parallel routines

     PWSCF        :   4m27.53s CPU   5m30.49s WALL


   This run was terminated on:  16: 8:17  18Jun2023            

=------------------------------------------------------------------------------=
   JOB DONE.
=------------------------------------------------------------------------------=
Note: The following floating-point exceptions are signalling: IEEE_DENORMAL
Note: The following floating-point exceptions are signalling: IEEE_DENORMAL
Note: The following floating-point exceptions are signalling: IEEE_DENORMAL
Note: The following floating-point exceptions are signalling: IEEE_DENORMAL
Note: The following floating-point exceptions are signalling: IEEE_DENORMAL
Note: The following floating-point exceptions are signalling: IEEE_DENORMAL
Note: The following floating-point exceptions are signalling: IEEE_DENORMAL
Note: The following floating-point exceptions are signalling: IEEE_DENORMAL
Note: The following floating-point exceptions are signalling: IEEE_DENORMAL
Note: The following floating-point exceptions are signalling: IEEE_DENORMAL
Note: The following floating-point exceptions are signalling: IEEE_DENORMAL
