Ignoring PCI device with non-16bit domain.
Pass --enable-32bits-pci-domain to configure to support such devices
(warning: it would break the library ABI, don't enable unless really needed).

     Program PWSCF v.7.1 starts on 23Jun2023 at 14:29:24 

     This program is part of the open-source Quantum ESPRESSO suite
     for quantum simulation of materials; please cite
         "P. Giannozzi et al., J. Phys.:Condens. Matter 21 395502 (2009);
         "P. Giannozzi et al., J. Phys.:Condens. Matter 29 465901 (2017);
         "P. Giannozzi et al., J. Chem. Phys. 152 154105 (2020);
          URL http://www.quantum-espresso.org", 
     in publications or presentations arising from this work. More details at
     http://www.quantum-espresso.org/quote

     Parallel version (MPI), running on    24 processors

     MPI processes distributed on     1 nodes
     12318 MiB available memory on the printing compute node when the environment starts

     Reading input from Ni_orthorhombic_so_atoms.in

     Current dimensions of program PWSCF are:
     Max number of different atomic species (ntypx) = 10
     Max number of k-points (npk) =  40000
     Max angular momentum in pseudopotentials (lmaxx) =  4
     Found identity + (  0.0000  0.0000  0.5000) symmetry
     This is a supercell, fractional translations are disabled

     R & G space division:  proc/nbgrp/npool/nimage =      24
     Subspace diagonalization in iterative solution of the eigenvalue problem:
     a serial algorithm will be used


     Parallelization info
     --------------------
     sticks:   dense  smooth     PW     G-vecs:    dense   smooth      PW
     Min          27      13      4                 1245      437      78
     Max          28      14      5                 1250      446      83
     Sum         657     329    111                29933    10601    1937

     Using Slab Decomposition



     bravais-lattice index     =            0
     lattice parameter (alat)  =       3.7795  a.u.
     unit-cell volume          =     168.4384 (a.u.)^3
     number of atoms/cell      =            2
     number of atomic types    =            1
     number of electrons       =        36.00
     number of Kohn-Sham states=           22
     kinetic-energy cutoff     =      60.0000  Ry
     charge density cutoff     =     480.0000  Ry
     scf convergence threshold =      1.0E-06
     mixing beta               =       0.7000
     number of iterations used =            8  TF        mixing
     energy convergence thresh.=      1.0E-05
     force convergence thresh. =      1.0E-04
     press convergence thresh. =      5.0E-01
     Exchange-correlation= PBE
                           (   1   4   3   4   0   0   0)
     nstep                     =           50


     celldm(1)=   3.779452  celldm(2)=   0.000000  celldm(3)=   0.000000
     celldm(4)=   0.000000  celldm(5)=   0.000000  celldm(6)=   0.000000

     crystal axes: (cart. coord. in units of alat)
               a(1) = (   1.000000   0.000000   0.000000 )  
               a(2) = (   0.000000   1.200000   0.000000 )  
               a(3) = (   0.000000   0.000000   2.600000 )  

     reciprocal axes: (cart. coord. in units 2 pi/alat)
               b(1) = (  1.000000  0.000000  0.000000 )  
               b(2) = (  0.000000  0.833333  0.000000 )  
               b(3) = (  0.000000  0.000000  0.384615 )  


     PseudoPot. # 1 for Ni read from file:
     /home/jmgoff/work/automation/qe_pseudos/Ni.upf
     MD5 check sum: caf20d35bef94d268ef04de15446df97
     Pseudo is Ultrasoft + core correction, Zval = 18.0
     Generated using 'atomic' code by A. Dal Corso  v.7.1
     Using radial grid of 1195 points,  6 beta functions with: 
                l(1) =   0
                l(2) =   0
                l(3) =   1
                l(4) =   1
                l(5) =   2
                l(6) =   2
     Q(r) pseudized with 0 coefficients 


     atomic species   valence    mass     pseudopotential
        Ni            18.00    58.69340     Ni( 1.00)

     Starting magnetic structure 
     atomic species   magnetization
        Ni           1.000

     No symmetry found



   Cartesian axes

     site n.     atom                  positions (alat units)
         1           Ni  tau(   1) = (   0.0000000   0.0000000   0.0000000  )
         2           Ni  tau(   2) = (   0.0000000   0.0000000   1.3000000  )

     number of k points=   199  Marzari-Vanderbilt smearing, width (Ry)=  0.0100

     Number of k-points >= 100: set verbosity='high' to print them.

     Dense  grid:    29933 G-vectors     FFT dimensions: (  27,  32,  72)

     Smooth grid:    10601 G-vectors     FFT dimensions: (  20,  24,  50)

     Estimated max dynamical RAM per process >      15.93 MB

     Estimated total dynamical RAM >     382.28 MB

     Check: negative core charge=   -0.000001
     Generating pointlists ...
     new r_m :   0.4125 (alat units)  1.5590 (a.u.) for type    1

     Initial potential from superposition of free atoms

     starting charge      35.9995, renormalised to      36.0000
     Starting wfcs are   20 randomized atomic wfcs +    2 random wfcs

     total cpu time spent up to now is        1.2 secs

     Self-consistent Calculation

     iteration #  1     ecut=    60.00 Ry     beta= 0.70
     Davidson diagonalization with overlap
     ethr =  1.00E-02,  avg # of iterations =  5.9

     total cpu time spent up to now is        7.0 secs

     total energy              =    -673.31860446 Ry
     estimated scf accuracy    <      17.60590449 Ry

     total magnetization       =     8.00 Bohr mag/cell
     absolute magnetization    =     9.65 Bohr mag/cell

     iteration #  2     ecut=    60.00 Ry     beta= 0.70
     Davidson diagonalization with overlap
     ethr =  1.00E-02,  avg # of iterations =  3.1

     total cpu time spent up to now is       11.7 secs

     total energy              =    -677.28171385 Ry
     estimated scf accuracy    <      12.40245496 Ry

     total magnetization       =     1.29 Bohr mag/cell
     absolute magnetization    =     2.16 Bohr mag/cell

     iteration #  3     ecut=    60.00 Ry     beta= 0.70
     Davidson diagonalization with overlap
     ethr =  1.00E-02,  avg # of iterations =  2.0

     negative rho (up, down):  0.000E+00 1.627E-03

     total cpu time spent up to now is       15.7 secs

     total energy              =    -679.18089160 Ry
     estimated scf accuracy    <       1.67383433 Ry

     total magnetization       =     2.81 Bohr mag/cell
     absolute magnetization    =     3.76 Bohr mag/cell

     iteration #  4     ecut=    60.00 Ry     beta= 0.70
     Davidson diagonalization with overlap
     ethr =  4.65E-03,  avg # of iterations =  3.1

     total cpu time spent up to now is       20.5 secs

     total energy              =    -668.99888869 Ry
     estimated scf accuracy    <     609.30983269 Ry

     total magnetization       =     1.38 Bohr mag/cell
     absolute magnetization    =    49.75 Bohr mag/cell

     iteration #  5     ecut=    60.00 Ry     beta= 0.70
     Davidson diagonalization with overlap
     ethr =  4.65E-03,  avg # of iterations =  2.9

     total cpu time spent up to now is       25.0 secs

     total energy              =    -679.21495169 Ry
     estimated scf accuracy    <       4.91407059 Ry

     total magnetization       =     1.87 Bohr mag/cell
     absolute magnetization    =     4.70 Bohr mag/cell

     iteration #  6     ecut=    60.00 Ry     beta= 0.70
     Davidson diagonalization with overlap
     ethr =  4.65E-03,  avg # of iterations =  2.0

     total cpu time spent up to now is       28.9 secs

     total energy              =    -678.41172861 Ry
     estimated scf accuracy    <      41.80636818 Ry

     total magnetization       =     1.52 Bohr mag/cell
     absolute magnetization    =    13.48 Bohr mag/cell

     iteration #  7     ecut=    60.00 Ry     beta= 0.70
     Davidson diagonalization with overlap
     ethr =  4.65E-03,  avg # of iterations =  2.0

     total cpu time spent up to now is       32.8 secs

     total energy              =    -678.93571298 Ry
     estimated scf accuracy    <       5.96218781 Ry

     total magnetization       =     1.66 Bohr mag/cell
     absolute magnetization    =     2.42 Bohr mag/cell

     iteration #  8     ecut=    60.00 Ry     beta= 0.70
     Davidson diagonalization with overlap
     ethr =  4.65E-03,  avg # of iterations =  2.0

     total cpu time spent up to now is       36.6 secs

     total energy              =    -679.03516636 Ry
     estimated scf accuracy    <      12.94222251 Ry

     total magnetization       =     1.45 Bohr mag/cell
     absolute magnetization    =     7.24 Bohr mag/cell

     iteration #  9     ecut=    60.00 Ry     beta= 0.70
     Davidson diagonalization with overlap
     ethr =  4.65E-03,  avg # of iterations =  1.2

     total cpu time spent up to now is       39.7 secs

     total energy              =    -678.97422719 Ry
     estimated scf accuracy    <       5.40452250 Ry

     total magnetization       =     1.48 Bohr mag/cell
     absolute magnetization    =     4.89 Bohr mag/cell

     iteration # 10     ecut=    60.00 Ry     beta= 0.70
     Davidson diagonalization with overlap
     ethr =  4.65E-03,  avg # of iterations =  1.4

     total cpu time spent up to now is       42.9 secs

     total energy              =    -679.03172930 Ry
     estimated scf accuracy    <       2.19318792 Ry

     total magnetization       =     1.49 Bohr mag/cell
     absolute magnetization    =     3.66 Bohr mag/cell

     iteration # 11     ecut=    60.00 Ry     beta= 0.70
     Davidson diagonalization with overlap
     ethr =  4.65E-03,  avg # of iterations =  1.0

     total cpu time spent up to now is       45.9 secs

     total energy              =    -679.03782734 Ry
     estimated scf accuracy    <       1.54232209 Ry

     total magnetization       =     1.48 Bohr mag/cell
     absolute magnetization    =     3.25 Bohr mag/cell

     iteration # 12     ecut=    60.00 Ry     beta= 0.70
     Davidson diagonalization with overlap
     ethr =  4.28E-03,  avg # of iterations =  1.0

     total cpu time spent up to now is       49.0 secs

     total energy              =    -679.03314162 Ry
     estimated scf accuracy    <       1.70160502 Ry

     total magnetization       =     1.49 Bohr mag/cell
     absolute magnetization    =     3.37 Bohr mag/cell

     iteration # 13     ecut=    60.00 Ry     beta= 0.70
     Davidson diagonalization with overlap
     ethr =  4.28E-03,  avg # of iterations =  1.0

     total cpu time spent up to now is       51.9 secs

     total energy              =    -679.01049482 Ry
     estimated scf accuracy    <       3.10654139 Ry

     total magnetization       =     1.56 Bohr mag/cell
     absolute magnetization    =     4.24 Bohr mag/cell

     iteration # 14     ecut=    60.00 Ry     beta= 0.70
     Davidson diagonalization with overlap
     ethr =  4.28E-03,  avg # of iterations =  1.4

     total cpu time spent up to now is       55.1 secs

     total energy              =    -679.07757562 Ry
     estimated scf accuracy    <       3.21126591 Ry

     total magnetization       =     1.46 Bohr mag/cell
     absolute magnetization    =     3.99 Bohr mag/cell

     iteration # 15     ecut=    60.00 Ry     beta= 0.70
     Davidson diagonalization with overlap
     ethr =  4.28E-03,  avg # of iterations =  1.0

     total cpu time spent up to now is       58.0 secs

     total energy              =    -679.08462461 Ry
     estimated scf accuracy    <       5.38616826 Ry

     total magnetization       =     1.33 Bohr mag/cell
     absolute magnetization    =     4.96 Bohr mag/cell

     iteration # 16     ecut=    60.00 Ry     beta= 0.70
     Davidson diagonalization with overlap
     ethr =  4.28E-03,  avg # of iterations =  2.0

     total cpu time spent up to now is       61.9 secs

     total energy              =    -678.71051577 Ry
     estimated scf accuracy    <      31.33232086 Ry

     total magnetization       =     1.25 Bohr mag/cell
     absolute magnetization    =    10.48 Bohr mag/cell

     iteration # 17     ecut=    60.00 Ry     beta= 0.70
     Davidson diagonalization with overlap
     ethr =  4.28E-03,  avg # of iterations =  2.0

     total cpu time spent up to now is       65.8 secs

     total energy              =    -679.04368206 Ry
     estimated scf accuracy    <       5.29430852 Ry

     total magnetization       =     1.37 Bohr mag/cell
     absolute magnetization    =     4.78 Bohr mag/cell

     iteration # 18     ecut=    60.00 Ry     beta= 0.70
     Davidson diagonalization with overlap
     ethr =  4.28E-03,  avg # of iterations =  2.0

     total cpu time spent up to now is       69.6 secs

     total energy              =    -679.00780909 Ry
     estimated scf accuracy    <      22.58441541 Ry

     total magnetization       =     1.26 Bohr mag/cell
     absolute magnetization    =     9.73 Bohr mag/cell

     iteration # 19     ecut=    60.00 Ry     beta= 0.70
     Davidson diagonalization with overlap
     ethr =  4.28E-03,  avg # of iterations =  2.0

     total cpu time spent up to now is       73.2 secs

     total energy              =    -679.49232753 Ry
     estimated scf accuracy    <       8.84121750 Ry

     total magnetization       =     1.39 Bohr mag/cell
     absolute magnetization    =     5.73 Bohr mag/cell

     iteration # 20     ecut=    60.00 Ry     beta= 0.70
     Davidson diagonalization with overlap
     ethr =  4.28E-03,  avg # of iterations =  2.0

     total cpu time spent up to now is       77.1 secs

     total energy              =    -677.42171496 Ry
     estimated scf accuracy    <     122.99489785 Ry

     total magnetization       =     0.62 Bohr mag/cell
     absolute magnetization    =    22.09 Bohr mag/cell

     iteration # 21     ecut=    60.00 Ry     beta= 0.70
     Davidson diagonalization with overlap
     ethr =  4.28E-03,  avg # of iterations =  2.0

     total cpu time spent up to now is       81.2 secs

     total energy              =    -678.95281256 Ry
     estimated scf accuracy    <      13.99657884 Ry

     total magnetization       =     1.49 Bohr mag/cell
     absolute magnetization    =     7.02 Bohr mag/cell

     iteration # 22     ecut=    60.00 Ry     beta= 0.70
     Davidson diagonalization with overlap
     ethr =  4.28E-03,  avg # of iterations =  2.0

     total cpu time spent up to now is       84.9 secs

     total energy              =    -678.96309578 Ry
     estimated scf accuracy    <      20.56958402 Ry

     total magnetization       =     1.52 Bohr mag/cell
     absolute magnetization    =     7.90 Bohr mag/cell

     iteration # 23     ecut=    60.00 Ry     beta= 0.70
     Davidson diagonalization with overlap
     ethr =  4.28E-03,  avg # of iterations =  2.0

     negative rho (up, down):  3.815E-03 1.008E-04

     total cpu time spent up to now is       88.6 secs

     total energy              =    -679.59798257 Ry
     estimated scf accuracy    <       8.46378773 Ry

     total magnetization       =     1.55 Bohr mag/cell
     absolute magnetization    =     5.73 Bohr mag/cell

     iteration # 24     ecut=    60.00 Ry     beta= 0.70
     Davidson diagonalization with overlap
     ethr =  4.28E-03,  avg # of iterations =  3.0

     total cpu time spent up to now is       93.3 secs

     total energy              =    -673.05420351 Ry
     estimated scf accuracy    <     476.31506097 Ry

     total magnetization       =     1.01 Bohr mag/cell
     absolute magnetization    =    42.52 Bohr mag/cell

     iteration # 25     ecut=    60.00 Ry     beta= 0.70
     Davidson diagonalization with overlap
     ethr =  4.28E-03,  avg # of iterations =  2.7

     total cpu time spent up to now is       97.8 secs

     total energy              =    -679.83924517 Ry
     estimated scf accuracy    <      45.23423021 Ry

     total magnetization       =     1.04 Bohr mag/cell
     absolute magnetization    =    12.57 Bohr mag/cell

     iteration # 26     ecut=    60.00 Ry     beta= 0.70
     Davidson diagonalization with overlap
     ethr =  4.28E-03,  avg # of iterations =  2.0

     negative rho (up, down):  1.250E-02 1.276E-03

     total cpu time spent up to now is      101.6 secs

     total energy              =    -678.66927337 Ry
     estimated scf accuracy    <      85.92969862 Ry

     total magnetization       =     1.20 Bohr mag/cell
     absolute magnetization    =    18.06 Bohr mag/cell

     iteration # 27     ecut=    60.00 Ry     beta= 0.70
     Davidson diagonalization with overlap
     ethr =  4.28E-03,  avg # of iterations =  3.0

     negative rho (up, down):  0.000E+00 8.140E-04

     total cpu time spent up to now is      106.3 secs

     total energy              =    -675.64919975 Ry
     estimated scf accuracy    <     539.65852496 Ry

     total magnetization       =     0.56 Bohr mag/cell
     absolute magnetization    =    46.50 Bohr mag/cell

     iteration # 28     ecut=    60.00 Ry     beta= 0.70
     Davidson diagonalization with overlap
     ethr =  4.28E-03,  avg # of iterations =  2.5

     total cpu time spent up to now is      110.8 secs

     total energy              =    -677.22126684 Ry
     estimated scf accuracy    <      58.36549511 Ry

     total magnetization       =     0.37 Bohr mag/cell
     absolute magnetization    =    13.91 Bohr mag/cell

     iteration # 29     ecut=    60.00 Ry     beta= 0.70
     Davidson diagonalization with overlap
     ethr =  4.28E-03,  avg # of iterations =  2.4

     total cpu time spent up to now is      115.0 secs

     total energy              =    -679.69173020 Ry
     estimated scf accuracy    <      55.84908777 Ry

     total magnetization       =     1.31 Bohr mag/cell
     absolute magnetization    =    13.93 Bohr mag/cell

     iteration # 30     ecut=    60.00 Ry     beta= 0.70
     Davidson diagonalization with overlap
     ethr =  4.28E-03,  avg # of iterations =  1.5

     total cpu time spent up to now is      118.3 secs

     total energy              =    -679.98738532 Ry
     estimated scf accuracy    <      55.74722756 Ry

     total magnetization       =     1.25 Bohr mag/cell
     absolute magnetization    =    13.39 Bohr mag/cell

     iteration # 31     ecut=    60.00 Ry     beta= 0.70
     Davidson diagonalization with overlap
     ethr =  4.28E-03,  avg # of iterations =  2.0

     total cpu time spent up to now is      122.2 secs

     total energy              =    -679.12370087 Ry
     estimated scf accuracy    <     125.45747560 Ry

     total magnetization       =     0.86 Bohr mag/cell
     absolute magnetization    =    22.51 Bohr mag/cell

     iteration # 32     ecut=    60.00 Ry     beta= 0.70
     Davidson diagonalization with overlap
     ethr =  4.28E-03,  avg # of iterations =  2.0

     negative rho (up, down):  3.411E-03 1.909E-03

     total cpu time spent up to now is      126.1 secs

     total energy              =    -681.38794570 Ry
     estimated scf accuracy    <      79.65403407 Ry

     total magnetization       =     1.36 Bohr mag/cell
     absolute magnetization    =    16.42 Bohr mag/cell

     iteration # 33     ecut=    60.00 Ry     beta= 0.70
     Davidson diagonalization with overlap
     ethr =  4.28E-03,  avg # of iterations =  2.0

     negative rho (up, down):  3.993E-03 8.201E-04

     total cpu time spent up to now is      130.0 secs

     total energy              =    -683.42283664 Ry
     estimated scf accuracy    <     197.98347184 Ry

     total magnetization       =     0.80 Bohr mag/cell
     absolute magnetization    =    24.77 Bohr mag/cell

     iteration # 34     ecut=    60.00 Ry     beta= 0.70
     Davidson diagonalization with overlap
     ethr =  4.28E-03,  avg # of iterations =  2.0

     negative rho (up, down):  5.383E-02 0.000E+00

     total cpu time spent up to now is      133.8 secs

     total energy              =    -681.45802571 Ry
     estimated scf accuracy    <     282.55949339 Ry

     total magnetization       =     1.24 Bohr mag/cell
     absolute magnetization    =    28.53 Bohr mag/cell

     iteration # 35     ecut=    60.00 Ry     beta= 0.70
     Davidson diagonalization with overlap
     ethr =  4.28E-03,  avg # of iterations =  3.0

     negative rho (up, down):  4.097E-02 2.186E-02

     total cpu time spent up to now is      138.4 secs

     total energy              =    -681.86394208 Ry
     estimated scf accuracy    <     530.34604079 Ry

     total magnetization       =     0.23 Bohr mag/cell
     absolute magnetization    =    45.17 Bohr mag/cell

     iteration # 36     ecut=    60.00 Ry     beta= 0.70
     Davidson diagonalization with overlap
     ethr =  4.28E-03,  avg # of iterations =  2.8

     negative rho (up, down):  9.977E-02 1.409E-01

     total cpu time spent up to now is      142.8 secs

     total energy              =    -687.96785034 Ry
     estimated scf accuracy    <     419.38225719 Ry

     total magnetization       =    -0.13 Bohr mag/cell
     absolute magnetization    =    32.77 Bohr mag/cell

     iteration # 37     ecut=    60.00 Ry     beta= 0.70
     Davidson diagonalization with overlap
     ethr =  4.28E-03,  avg # of iterations =  4.2

     negative rho (up, down):  1.773E-02 5.576E-03

     total cpu time spent up to now is      148.6 secs

     total energy              =    -663.78249714 Ry
     estimated scf accuracy    <    1563.56696843 Ry

     total magnetization       =     0.16 Bohr mag/cell
     absolute magnetization    =    78.42 Bohr mag/cell

     iteration # 38     ecut=    60.00 Ry     beta= 0.70
     Davidson diagonalization with overlap
     ethr =  4.28E-03,  avg # of iterations =  3.3

     negative rho (up, down):  3.672E-01 1.304E-01

     total cpu time spent up to now is      154.1 secs

     total energy              =    -693.03369605 Ry
     estimated scf accuracy    <     434.45988713 Ry

     total magnetization       =    -0.01 Bohr mag/cell
     absolute magnetization    =    40.62 Bohr mag/cell

     iteration # 39     ecut=    60.00 Ry     beta= 0.70
     Davidson diagonalization with overlap
     ethr =  4.28E-03,  avg # of iterations =  4.5

     negative rho (up, down):  3.767E-01 1.206E-01

     total cpu time spent up to now is      160.2 secs

     total energy              =    -738.18949971 Ry
     estimated scf accuracy    <    1947.50466886 Ry

     total magnetization       =    -0.04 Bohr mag/cell
     absolute magnetization    =    73.95 Bohr mag/cell

     iteration # 40     ecut=    60.00 Ry     beta= 0.70
     Davidson diagonalization with overlap
     ethr =  4.28E-03,  avg # of iterations =  2.8

     negative rho (up, down):  2.819E-01 1.545E-01

     total cpu time spent up to now is      164.7 secs

     total energy              =    -695.65796253 Ry
     estimated scf accuracy    <    1990.33176104 Ry

     total magnetization       =    -0.16 Bohr mag/cell
     absolute magnetization    =    68.91 Bohr mag/cell

     iteration # 41     ecut=    60.00 Ry     beta= 0.70
     Davidson diagonalization with overlap
     ethr =  4.28E-03,  avg # of iterations =  3.5

     negative rho (up, down):  6.679E-01 1.624E-01

     total cpu time spent up to now is      170.2 secs

     total energy              =    -717.67866435 Ry
     estimated scf accuracy    <    1500.32063186 Ry

     total magnetization       =    -0.27 Bohr mag/cell
     absolute magnetization    =    65.40 Bohr mag/cell

     iteration # 42     ecut=    60.00 Ry     beta= 0.70
     Davidson diagonalization with overlap
     ethr =  4.28E-03,  avg # of iterations =  4.8

     negative rho (up, down):  1.388E+00 8.027E-01

     total cpu time spent up to now is      176.9 secs

     total energy              =    -799.16941673 Ry
     estimated scf accuracy    <    2355.41853355 Ry

     total magnetization       =    -0.39 Bohr mag/cell
     absolute magnetization    =    57.01 Bohr mag/cell

     iteration # 43     ecut=    60.00 Ry     beta= 0.70
     Davidson diagonalization with overlap
     ethr =  4.28E-03,  avg # of iterations =  5.0

     negative rho (up, down):  2.111E+00 1.725E+00

     total cpu time spent up to now is      183.5 secs

     total energy              =    -773.06650693 Ry
     estimated scf accuracy    <    2960.56866756 Ry

     total magnetization       =    -0.08 Bohr mag/cell
     absolute magnetization    =    78.78 Bohr mag/cell

     iteration # 44     ecut=    60.00 Ry     beta= 0.70
     Davidson diagonalization with overlap
     ethr =  4.28E-03,  avg # of iterations =  6.0

     negative rho (up, down):  1.797E+00 3.567E+00

     total cpu time spent up to now is      191.0 secs

     total energy              =    -841.79846352 Ry
     estimated scf accuracy    <    3467.29186196 Ry

     total magnetization       =    -0.17 Bohr mag/cell
     absolute magnetization    =    73.10 Bohr mag/cell

     iteration # 45     ecut=    60.00 Ry     beta= 0.70
     Davidson diagonalization with overlap
     ethr =  4.28E-03,  avg # of iterations =  7.3

     negative rho (up, down):  2.759E+00 5.013E+00

     total cpu time spent up to now is      199.6 secs

     total energy              =    -679.58508715 Ry
     estimated scf accuracy    <    3665.69331361 Ry

     total magnetization       =     0.28 Bohr mag/cell
     absolute magnetization    =    60.80 Bohr mag/cell

     iteration # 46     ecut=    60.00 Ry     beta= 0.70
     Davidson diagonalization with overlap
     ethr =  4.28E-03,  avg # of iterations = 10.1

     negative rho (up, down):  3.019E+00 4.471E+00

     total cpu time spent up to now is      210.0 secs

     total energy              =    -706.36628137 Ry
     estimated scf accuracy    <    4127.16067142 Ry

     total magnetization       =    -0.36 Bohr mag/cell
     absolute magnetization    =    55.61 Bohr mag/cell

     iteration # 47     ecut=    60.00 Ry     beta= 0.70
     Davidson diagonalization with overlap
     ethr =  4.28E-03,  avg # of iterations =  7.8

     negative rho (up, down):  4.833E+00 4.116E+00

     total cpu time spent up to now is      219.2 secs

     total energy              =    -791.22634251 Ry
     estimated scf accuracy    <    3458.22246860 Ry

     total magnetization       =     0.01 Bohr mag/cell
     absolute magnetization    =    80.99 Bohr mag/cell

     iteration # 48     ecut=    60.00 Ry     beta= 0.70
     Davidson diagonalization with overlap
     ethr =  4.28E-03,  avg # of iterations =  5.5

     negative rho (up, down):  2.083E+00 5.127E+00

     total cpu time spent up to now is      226.4 secs

     total energy              =    -427.39928876 Ry
     estimated scf accuracy    <    2758.51825045 Ry

     total magnetization       =     0.21 Bohr mag/cell
     absolute magnetization    =   102.47 Bohr mag/cell

     iteration # 49     ecut=    60.00 Ry     beta= 0.70
     Davidson diagonalization with overlap
     ethr =  4.28E-03,  avg # of iterations = 10.8

     negative rho (up, down):  1.297E+00 8.664E-01

     total cpu time spent up to now is      237.7 secs

     total energy              =    -626.41021165 Ry
     estimated scf accuracy    <    4759.44234973 Ry

     total magnetization       =     0.69 Bohr mag/cell
     absolute magnetization    =    31.69 Bohr mag/cell

     iteration # 50     ecut=    60.00 Ry     beta= 0.70
     Davidson diagonalization with overlap
     ethr =  4.28E-03,  avg # of iterations =  6.3

     negative rho (up, down):  2.720E+00 1.477E+00

     total cpu time spent up to now is      246.0 secs

     total energy              =    -710.00931466 Ry
     estimated scf accuracy    <    2616.18319231 Ry

     total magnetization       =     0.22 Bohr mag/cell
     absolute magnetization    =    54.73 Bohr mag/cell

     iteration # 51     ecut=    60.00 Ry     beta= 0.70
     Davidson diagonalization with overlap
     ethr =  4.28E-03,  avg # of iterations =  5.4

     negative rho (up, down):  3.152E+00 1.924E+00

     total cpu time spent up to now is      253.2 secs

     total energy              =    -692.97052215 Ry
     estimated scf accuracy    <    2500.83401220 Ry

     total magnetization       =    -0.65 Bohr mag/cell
     absolute magnetization    =   103.62 Bohr mag/cell

     iteration # 52     ecut=    60.00 Ry     beta= 0.70
     Davidson diagonalization with overlap
     ethr =  4.28E-03,  avg # of iterations =  5.6

     negative rho (up, down):  3.026E+00 2.113E+00

     total cpu time spent up to now is      260.6 secs

     total energy              =    -772.97564208 Ry
     estimated scf accuracy    <    2212.24710971 Ry

     total magnetization       =    -0.01 Bohr mag/cell
     absolute magnetization    =    82.41 Bohr mag/cell

     iteration # 53     ecut=    60.00 Ry     beta= 0.70
     Davidson diagonalization with overlap
     ethr =  4.28E-03,  avg # of iterations =  4.6

     negative rho (up, down):  3.737E+00 3.311E+00

     total cpu time spent up to now is      266.7 secs

     total energy              =    -784.43109904 Ry
     estimated scf accuracy    <    2134.31590781 Ry

     total magnetization       =    -0.15 Bohr mag/cell
     absolute magnetization    =    75.50 Bohr mag/cell

     iteration # 54     ecut=    60.00 Ry     beta= 0.70
     Davidson diagonalization with overlap
     ethr =  4.28E-03,  avg # of iterations =  6.9

     negative rho (up, down):  3.667E+00 8.921E+00

     total cpu time spent up to now is      274.8 secs

     total energy              =    -596.49722158 Ry
     estimated scf accuracy    <    3226.51978997 Ry

     total magnetization       =     0.01 Bohr mag/cell
     absolute magnetization    =    82.03 Bohr mag/cell

     iteration # 55     ecut=    60.00 Ry     beta= 0.70
     Davidson diagonalization with overlap
     ethr =  4.28E-03,  avg # of iterations = 10.3

     negative rho (up, down):  5.404E+00 4.428E+00

     total cpu time spent up to now is      286.2 secs

     total energy              =    -479.84101139 Ry
     estimated scf accuracy    <    4743.45802492 Ry

     total magnetization       =     0.49 Bohr mag/cell
     absolute magnetization    =    37.58 Bohr mag/cell

     iteration # 56     ecut=    60.00 Ry     beta= 0.70
     Davidson diagonalization with overlap
     ethr =  4.28E-03,  avg # of iterations =  8.0

     negative rho (up, down):  6.079E+00 4.715E+00

     total cpu time spent up to now is      295.7 secs

     total energy              =    -859.08538552 Ry
     estimated scf accuracy    <    2710.95563708 Ry

     total magnetization       =     0.25 Bohr mag/cell
     absolute magnetization    =   102.33 Bohr mag/cell

     iteration # 57     ecut=    60.00 Ry     beta= 0.70
     Davidson diagonalization with overlap
     ethr =  4.28E-03,  avg # of iterations =  5.0

     negative rho (up, down):  7.441E+00 5.480E+00

     total cpu time spent up to now is      302.2 secs

     total energy              =    -830.39595479 Ry
     estimated scf accuracy    <    2776.94637014 Ry

     total magnetization       =     0.08 Bohr mag/cell
     absolute magnetization    =    98.45 Bohr mag/cell

     iteration # 58     ecut=    60.00 Ry     beta= 0.70
     Davidson diagonalization with overlap
     ethr =  4.28E-03,  avg # of iterations =  4.3

     negative rho (up, down):  7.222E+00 6.595E+00

     total cpu time spent up to now is      308.3 secs

     total energy              =    -827.88796814 Ry
     estimated scf accuracy    <    2302.37903363 Ry

     total magnetization       =     0.32 Bohr mag/cell
     absolute magnetization    =    96.44 Bohr mag/cell

     iteration # 59     ecut=    60.00 Ry     beta= 0.70
     Davidson diagonalization with overlap
     ethr =  4.28E-03,  avg # of iterations =  5.9

     negative rho (up, down):  1.096E+01 7.927E+00

     total cpu time spent up to now is      315.8 secs

     total energy              =    -427.32824369 Ry
     estimated scf accuracy    <    2518.19114934 Ry

     total magnetization       =     0.09 Bohr mag/cell
     absolute magnetization    =    73.48 Bohr mag/cell

     iteration # 60     ecut=    60.00 Ry     beta= 0.70
     Davidson diagonalization with overlap
     ethr =  4.28E-03,  avg # of iterations = 10.6

     negative rho (up, down):  8.848E+00 8.497E+00

     total cpu time spent up to now is      326.9 secs

     total energy              =    -540.06685316 Ry
     estimated scf accuracy    <    4104.54887516 Ry

     total magnetization       =     0.07 Bohr mag/cell
     absolute magnetization    =    55.12 Bohr mag/cell

     iteration # 61     ecut=    60.00 Ry     beta= 0.70
     Davidson diagonalization with overlap
     ethr =  4.28E-03,  avg # of iterations =  6.5

     negative rho (up, down):  6.894E+00 6.826E+00

     total cpu time spent up to now is      335.6 secs

     total energy              =    -776.33545499 Ry
     estimated scf accuracy    <    1878.63602040 Ry

     total magnetization       =     0.14 Bohr mag/cell
     absolute magnetization    =   121.91 Bohr mag/cell

     iteration # 62     ecut=    60.00 Ry     beta= 0.70
     Davidson diagonalization with overlap
     ethr =  4.28E-03,  avg # of iterations =  4.7

     negative rho (up, down):  6.858E+00 7.041E+00

     total cpu time spent up to now is      341.5 secs

     total energy              =    -776.50742414 Ry
     estimated scf accuracy    <    2176.90476800 Ry

     total magnetization       =    -0.05 Bohr mag/cell
     absolute magnetization    =   122.61 Bohr mag/cell

     iteration # 63     ecut=    60.00 Ry     beta= 0.70
     Davidson diagonalization with overlap
     ethr =  4.28E-03,  avg # of iterations =  4.0

     negative rho (up, down):  6.974E+00 8.081E+00

     total cpu time spent up to now is      346.8 secs

     total energy              =    -764.19233578 Ry
     estimated scf accuracy    <    2086.83629334 Ry

     total magnetization       =    -0.05 Bohr mag/cell
     absolute magnetization    =   124.57 Bohr mag/cell

     iteration # 64     ecut=    60.00 Ry     beta= 0.70
     Davidson diagonalization with overlap
     ethr =  4.28E-03,  avg # of iterations =  4.3

     negative rho (up, down):  1.068E+01 1.546E+01

     total cpu time spent up to now is      352.9 secs

     total energy              =    -814.74507595 Ry
     estimated scf accuracy    <    1847.46524668 Ry

     total magnetization       =     0.03 Bohr mag/cell
     absolute magnetization    =   122.13 Bohr mag/cell

     iteration # 65     ecut=    60.00 Ry     beta= 0.70
     Davidson diagonalization with overlap
     ethr =  4.28E-03,  avg # of iterations =  9.1

     negative rho (up, down):  1.120E+01 1.142E+01

     total cpu time spent up to now is      362.7 secs

     total energy              =    -548.12320491 Ry
     estimated scf accuracy    <    4330.08730925 Ry

     total magnetization       =     0.08 Bohr mag/cell
     absolute magnetization    =    48.36 Bohr mag/cell

     iteration # 66     ecut=    60.00 Ry     beta= 0.70
     Davidson diagonalization with overlap
     ethr =  4.28E-03,  avg # of iterations =  6.2

     negative rho (up, down):  1.160E+01 1.178E+01

     total cpu time spent up to now is      371.2 secs

     total energy              =    -731.15548807 Ry
     estimated scf accuracy    <    1309.73191284 Ry

     total magnetization       =     0.12 Bohr mag/cell
     absolute magnetization    =   125.01 Bohr mag/cell

     iteration # 67     ecut=    60.00 Ry     beta= 0.70
     Davidson diagonalization with overlap
     ethr =  4.28E-03,  avg # of iterations =  5.1

     negative rho (up, down):  1.008E+01 1.156E+01

     total cpu time spent up to now is      377.9 secs

     total energy              =    -726.65155152 Ry
     estimated scf accuracy    <    1396.15596490 Ry

     total magnetization       =     0.30 Bohr mag/cell
     absolute magnetization    =   120.38 Bohr mag/cell

     iteration # 68     ecut=    60.00 Ry     beta= 0.70
     Davidson diagonalization with overlap
     ethr =  4.28E-03,  avg # of iterations =  5.0

     negative rho (up, down):  1.585E+01 1.449E+01

     total cpu time spent up to now is      384.4 secs

     total energy              =    -760.39645461 Ry
     estimated scf accuracy    <    1288.54052632 Ry

     total magnetization       =    -0.17 Bohr mag/cell
     absolute magnetization    =   114.56 Bohr mag/cell

     iteration # 69     ecut=    60.00 Ry     beta= 0.70
     Davidson diagonalization with overlap
     ethr =  4.28E-03,  avg # of iterations =  7.3

     negative rho (up, down):  1.665E+01 1.257E+01

     total cpu time spent up to now is      392.5 secs

     total energy              =    -279.18709576 Ry
     estimated scf accuracy    <    3828.15075887 Ry

     total magnetization       =     0.38 Bohr mag/cell
     absolute magnetization    =    45.40 Bohr mag/cell

     iteration # 70     ecut=    60.00 Ry     beta= 0.70
     Davidson diagonalization with overlap
     ethr =  4.28E-03,  avg # of iterations =  9.6

     negative rho (up, down):  1.277E+01 1.372E+01

     total cpu time spent up to now is      403.0 secs

     total energy              =    -496.05244187 Ry
     estimated scf accuracy    <    4381.89413897 Ry

     total magnetization       =     0.03 Bohr mag/cell
     absolute magnetization    =    53.26 Bohr mag/cell

     iteration # 71     ecut=    60.00 Ry     beta= 0.70
     Davidson diagonalization with overlap
     ethr =  4.28E-03,  avg # of iterations =  6.6

     negative rho (up, down):  1.391E+01 1.434E+01

     total cpu time spent up to now is      411.3 secs

     total energy              =    -704.93338722 Ry
     estimated scf accuracy    <    1014.43828828 Ry

     total magnetization       =     0.45 Bohr mag/cell
     absolute magnetization    =   122.59 Bohr mag/cell

     iteration # 72     ecut=    60.00 Ry     beta= 0.70
     Davidson diagonalization with overlap
     ethr =  4.28E-03,  avg # of iterations =  5.0

     negative rho (up, down):  1.233E+01 1.300E+01

     total cpu time spent up to now is      417.7 secs

     total energy              =    -732.88570701 Ry
     estimated scf accuracy    <     836.84477022 Ry

     total magnetization       =    -0.09 Bohr mag/cell
     absolute magnetization    =   128.40 Bohr mag/cell

     iteration # 73     ecut=    60.00 Ry     beta= 0.70
     Davidson diagonalization with overlap
     ethr =  4.28E-03,  avg # of iterations =  4.3

     negative rho (up, down):  1.233E+01 1.275E+01

     total cpu time spent up to now is      423.3 secs

     total energy              =    -727.01402075 Ry
     estimated scf accuracy    <    1078.82850742 Ry

     total magnetization       =    -0.04 Bohr mag/cell
     absolute magnetization    =   124.28 Bohr mag/cell

     iteration # 74     ecut=    60.00 Ry     beta= 0.70
     Davidson diagonalization with overlap
     ethr =  4.28E-03,  avg # of iterations =  4.1

     negative rho (up, down):  1.542E+01 2.041E+01

     total cpu time spent up to now is      428.7 secs

     total energy              =    -773.49441908 Ry
     estimated scf accuracy    <    1030.64864515 Ry

     total magnetization       =    -0.01 Bohr mag/cell
     absolute magnetization    =   127.89 Bohr mag/cell

     iteration # 75     ecut=    60.00 Ry     beta= 0.70
     Davidson diagonalization with overlap
     ethr =  4.28E-03,  avg # of iterations =  8.3

     negative rho (up, down):  1.381E+01 1.401E+01

     total cpu time spent up to now is      437.7 secs

     total energy              =    -528.64060980 Ry
     estimated scf accuracy    <    4105.42446749 Ry

     total magnetization       =     0.31 Bohr mag/cell
     absolute magnetization    =    55.75 Bohr mag/cell

     iteration # 76     ecut=    60.00 Ry     beta= 0.70
     Davidson diagonalization with overlap
     ethr =  4.28E-03,  avg # of iterations =  6.5

     negative rho (up, down):  1.462E+01 1.501E+01

     total cpu time spent up to now is      445.9 secs

     total energy              =    -712.99703376 Ry
     estimated scf accuracy    <     995.87726077 Ry

     total magnetization       =     0.20 Bohr mag/cell
     absolute magnetization    =   125.80 Bohr mag/cell

     iteration # 77     ecut=    60.00 Ry     beta= 0.70
     Davidson diagonalization with overlap
     ethr =  4.28E-03,  avg # of iterations =  5.0

     negative rho (up, down):  1.427E+01 1.421E+01

     total cpu time spent up to now is      452.7 secs

     total energy              =    -692.26461433 Ry
     estimated scf accuracy    <    1129.58665756 Ry

     total magnetization       =     0.29 Bohr mag/cell
     absolute magnetization    =   118.47 Bohr mag/cell

     iteration # 78     ecut=    60.00 Ry     beta= 0.70
     Davidson diagonalization with overlap
     ethr =  4.28E-03,  avg # of iterations =  5.0

     negative rho (up, down):  2.039E+01 1.926E+01

     total cpu time spent up to now is      459.3 secs

     total energy              =    -708.30795261 Ry
     estimated scf accuracy    <     811.52974532 Ry

     total magnetization       =    -0.08 Bohr mag/cell
     absolute magnetization    =   129.63 Bohr mag/cell

     iteration # 79     ecut=    60.00 Ry     beta= 0.70
     Davidson diagonalization with overlap
     ethr =  4.28E-03,  avg # of iterations =  6.9

     negative rho (up, down):  1.967E+01 1.692E+01

     total cpu time spent up to now is      467.8 secs

     total energy              =    -251.50318156 Ry
     estimated scf accuracy    <    5487.62481048 Ry

     total magnetization       =     0.03 Bohr mag/cell
     absolute magnetization    =    31.54 Bohr mag/cell

     iteration # 80     ecut=    60.00 Ry     beta= 0.70
     Davidson diagonalization with overlap
     ethr =  4.28E-03,  avg # of iterations =  7.8

     negative rho (up, down):  1.688E+01 1.624E+01

     total cpu time spent up to now is      476.8 secs

     total energy              =    -632.66700359 Ry
     estimated scf accuracy    <    2669.05433912 Ry

     total magnetization       =     0.03 Bohr mag/cell
     absolute magnetization    =    81.15 Bohr mag/cell

     iteration # 81     ecut=    60.00 Ry     beta= 0.70
     Davidson diagonalization with overlap
     ethr =  4.28E-03,  avg # of iterations =  5.0

     negative rho (up, down):  1.761E+01 1.686E+01

     total cpu time spent up to now is      483.3 secs

     total energy              =    -696.63048529 Ry
     estimated scf accuracy    <     618.66085698 Ry

     total magnetization       =     0.41 Bohr mag/cell
     absolute magnetization    =   127.57 Bohr mag/cell

     iteration # 82     ecut=    60.00 Ry     beta= 0.70
     Davidson diagonalization with overlap
     ethr =  4.28E-03,  avg # of iterations =  3.8

     negative rho (up, down):  1.765E+01 1.706E+01

     total cpu time spent up to now is      488.4 secs

     total energy              =    -697.73892199 Ry
     estimated scf accuracy    <     497.70097801 Ry

     total magnetization       =    -0.10 Bohr mag/cell
     absolute magnetization    =   128.06 Bohr mag/cell

     iteration # 83     ecut=    60.00 Ry     beta= 0.70
     Davidson diagonalization with overlap
     ethr =  4.28E-03,  avg # of iterations =  4.0

     negative rho (up, down):  1.769E+01 1.704E+01

     total cpu time spent up to now is      493.6 secs

     total energy              =    -700.86531208 Ry
     estimated scf accuracy    <     517.53340728 Ry

     total magnetization       =    -0.09 Bohr mag/cell
     absolute magnetization    =   128.28 Bohr mag/cell

     iteration # 84     ecut=    60.00 Ry     beta= 0.70
     Davidson diagonalization with overlap
     ethr =  4.28E-03,  avg # of iterations =  1.0

     negative rho (up, down):  1.674E+01 2.036E+01

     total cpu time spent up to now is      496.6 secs

     total energy              =    -697.98518010 Ry
     estimated scf accuracy    <     508.51428294 Ry

     total magnetization       =     0.08 Bohr mag/cell
     absolute magnetization    =   128.12 Bohr mag/cell

     iteration # 85     ecut=    60.00 Ry     beta= 0.70
     Davidson diagonalization with overlap
     ethr =  4.28E-03,  avg # of iterations =  7.3

     negative rho (up, down):  1.756E+01 1.686E+01

     total cpu time spent up to now is      505.3 secs

     total energy              =    -497.51729714 Ry
     estimated scf accuracy    <    4098.34719845 Ry

     total magnetization       =    -0.08 Bohr mag/cell
     absolute magnetization    =    58.15 Bohr mag/cell

     iteration # 86     ecut=    60.00 Ry     beta= 0.70
     Davidson diagonalization with overlap
     ethr =  4.28E-03,  avg # of iterations =  6.1

     negative rho (up, down):  1.823E+01 1.840E+01

     total cpu time spent up to now is      512.9 secs

     total energy              =    -693.80673611 Ry
     estimated scf accuracy    <     499.27073664 Ry

     total magnetization       =    -0.11 Bohr mag/cell
     absolute magnetization    =   128.94 Bohr mag/cell

     iteration # 87     ecut=    60.00 Ry     beta= 0.70
     Davidson diagonalization with overlap
     ethr =  4.28E-03,  avg # of iterations =  6.2

     negative rho (up, down):  1.810E+01 1.773E+01

     total cpu time spent up to now is      520.8 secs

     total energy              =    -614.52715970 Ry
     estimated scf accuracy    <    1714.14085187 Ry

     total magnetization       =    -0.05 Bohr mag/cell
     absolute magnetization    =   102.65 Bohr mag/cell

     iteration # 88     ecut=    60.00 Ry     beta= 0.70
     Davidson diagonalization with overlap
     ethr =  4.28E-03,  avg # of iterations =  5.4

     negative rho (up, down):  2.317E+01 2.116E+01

     total cpu time spent up to now is      528.0 secs

     total energy              =    -682.33442102 Ry
     estimated scf accuracy    <     443.32600545 Ry

     total magnetization       =    -0.23 Bohr mag/cell
     absolute magnetization    =   130.09 Bohr mag/cell

     iteration # 89     ecut=    60.00 Ry     beta= 0.70
     Davidson diagonalization with overlap
     ethr =  4.28E-03,  avg # of iterations =  7.3

     negative rho (up, down):  2.173E+01 2.081E+01

     total cpu time spent up to now is      536.8 secs

     total energy              =    -452.73070767 Ry
     estimated scf accuracy    <    4175.60820061 Ry

     total magnetization       =     0.15 Bohr mag/cell
     absolute magnetization    =    63.52 Bohr mag/cell

     iteration # 90     ecut=    60.00 Ry     beta= 0.70
     Davidson diagonalization with overlap
     ethr =  4.28E-03,  avg # of iterations =  6.7

     negative rho (up, down):  1.952E+01 1.987E+01

     total cpu time spent up to now is      545.4 secs

     total energy              =    -635.37820846 Ry
     estimated scf accuracy    <     770.77881074 Ry

     total magnetization       =     0.04 Bohr mag/cell
     absolute magnetization    =   118.33 Bohr mag/cell

     iteration # 91     ecut=    60.00 Ry     beta= 0.70
     Davidson diagonalization with overlap
     ethr =  4.28E-03,  avg # of iterations =  5.0

     negative rho (up, down):  2.158E+01 2.094E+01

     total cpu time spent up to now is      552.1 secs

     total energy              =    -663.28632694 Ry
     estimated scf accuracy    <     365.46241196 Ry

     total magnetization       =    -0.30 Bohr mag/cell
     absolute magnetization    =   128.61 Bohr mag/cell

     iteration # 92     ecut=    60.00 Ry     beta= 0.70
     Davidson diagonalization with overlap
     ethr =  4.28E-03,  avg # of iterations =  4.8

     negative rho (up, down):  2.127E+01 2.121E+01

     total cpu time spent up to now is      558.3 secs

     total energy              =    -660.54476884 Ry
     estimated scf accuracy    <     284.59027194 Ry

     total magnetization       =    -0.00 Bohr mag/cell
     absolute magnetization    =   127.96 Bohr mag/cell

     iteration # 93     ecut=    60.00 Ry     beta= 0.70
     Davidson diagonalization with overlap
     ethr =  4.28E-03,  avg # of iterations =  4.6

     negative rho (up, down):  2.101E+01 2.107E+01

     total cpu time spent up to now is      564.0 secs

     total energy              =    -670.09615600 Ry
     estimated scf accuracy    <     205.80664254 Ry

     total magnetization       =    -0.11 Bohr mag/cell
     absolute magnetization    =   130.42 Bohr mag/cell

     iteration # 94     ecut=    60.00 Ry     beta= 0.70
     Davidson diagonalization with overlap
     ethr =  4.28E-03,  avg # of iterations =  3.0

     negative rho (up, down):  2.387E+01 2.407E+01

     total cpu time spent up to now is      568.4 secs

     total energy              =    -651.89327742 Ry
     estimated scf accuracy    <     212.65153575 Ry

     total magnetization       =     0.01 Bohr mag/cell
     absolute magnetization    =   130.21 Bohr mag/cell

     iteration # 95     ecut=    60.00 Ry     beta= 0.70
     Davidson diagonalization with overlap
     ethr =  4.28E-03,  avg # of iterations =  4.5

     negative rho (up, down):  2.159E+01 2.339E+01

     total cpu time spent up to now is      574.3 secs

     total energy              =    -636.61668184 Ry
     estimated scf accuracy    <     367.80453248 Ry

     total magnetization       =     0.01 Bohr mag/cell
     absolute magnetization    =   117.19 Bohr mag/cell

     iteration # 96     ecut=    60.00 Ry     beta= 0.70
     Davidson diagonalization with overlap
     ethr =  4.28E-03,  avg # of iterations =  4.6

     negative rho (up, down):  2.495E+01 2.482E+01

     total cpu time spent up to now is      580.4 secs

     total energy              =    -625.03748335 Ry
     estimated scf accuracy    <     248.74311179 Ry

     total magnetization       =    -0.62 Bohr mag/cell
     absolute magnetization    =   118.97 Bohr mag/cell

     iteration # 97     ecut=    60.00 Ry     beta= 0.70
     Davidson diagonalization with overlap
     ethr =  4.28E-03,  avg # of iterations =  5.0

     negative rho (up, down):  2.371E+01 2.397E+01

     total cpu time spent up to now is      587.0 secs

     total energy              =    -636.03787701 Ry
     estimated scf accuracy    <     356.45000085 Ry

     total magnetization       =    -0.04 Bohr mag/cell
     absolute magnetization    =   124.29 Bohr mag/cell

     iteration # 98     ecut=    60.00 Ry     beta= 0.70
     Davidson diagonalization with overlap
     ethr =  4.28E-03,  avg # of iterations =  4.9

     negative rho (up, down):  2.664E+01 2.515E+01

     total cpu time spent up to now is      593.2 secs

     total energy              =    -633.60185182 Ry
     estimated scf accuracy    <      63.87836832 Ry

     total magnetization       =    -0.01 Bohr mag/cell
     absolute magnetization    =   130.14 Bohr mag/cell

     iteration # 99     ecut=    60.00 Ry     beta= 0.70
     Davidson diagonalization with overlap
     ethr =  4.28E-03,  avg # of iterations =  4.5

     negative rho (up, down):  2.479E+01 2.486E+01

     total cpu time spent up to now is      599.4 secs

     total energy              =    -585.32894241 Ry
     estimated scf accuracy    <    1162.85688448 Ry

     total magnetization       =     0.03 Bohr mag/cell
     absolute magnetization    =   104.52 Bohr mag/cell

     iteration #100     ecut=    60.00 Ry     beta= 0.70
     Davidson diagonalization with overlap
     ethr =  4.28E-03,  avg # of iterations =  5.2

     negative rho (up, down):  2.590E+01 2.540E+01

     total cpu time spent up to now is      606.0 secs

     total energy              =    -635.91834277 Ry
     estimated scf accuracy    <      42.05162660 Ry

     total magnetization       =     0.33 Bohr mag/cell
     absolute magnetization    =   130.46 Bohr mag/cell

     End of self-consistent calculation

     convergence NOT achieved after 100 iterations: stopping

     Writing config to output data dir ./out/pwscf.save/

     init_run     :      0.88s CPU      1.10s WALL (       1 calls)
     electrons    :    475.49s CPU    604.80s WALL (       1 calls)

     Called by init_run:
     wfcinit      :      0.79s CPU      0.99s WALL (       1 calls)
     potinit      :      0.02s CPU      0.02s WALL (       1 calls)
     hinit0       :      0.06s CPU      0.08s WALL (       1 calls)

     Called by electrons:
     c_bands      :    440.44s CPU    561.14s WALL (     100 calls)
     sum_band     :     33.97s CPU     42.39s WALL (     100 calls)
     v_of_rho     :      0.45s CPU      0.49s WALL (     101 calls)
     newd         :      0.51s CPU      0.54s WALL (     101 calls)
     mix_rho      :      0.08s CPU      0.14s WALL (     100 calls)

     Called by c_bands:
     init_us_2    :      1.17s CPU      1.47s WALL (   79998 calls)
     init_us_2:cp :      1.08s CPU      1.37s WALL (   79998 calls)
     cegterg      :    433.47s CPU    552.15s WALL (   39800 calls)

     Called by *egterg:
     cdiaghg      :    119.53s CPU    154.42s WALL (  217628 calls)
     h_psi        :    217.26s CPU    280.02s WALL (  218026 calls)
     s_psi        :     11.70s CPU     14.44s WALL (  218026 calls)
     g_psi        :      0.52s CPU      0.62s WALL (  177828 calls)

     Called by h_psi:
     h_psi:calbec :     14.25s CPU     18.38s WALL (  218026 calls)
     vloc_psi     :    190.46s CPU    245.84s WALL (  218026 calls)
     add_vuspsi   :     11.59s CPU     14.61s WALL (  218026 calls)

     General routines
     calbec       :     17.31s CPU     22.26s WALL (  257826 calls)
     fft          :      0.22s CPU      0.30s WALL (    2523 calls)
     ffts         :      0.02s CPU      0.02s WALL (     402 calls)
     fftw         :    208.21s CPU    267.90s WALL ( 7122382 calls)
     interpolate  :      0.02s CPU      0.03s WALL (     202 calls)
     davcio       :      0.00s CPU      0.00s WALL (      18 calls)

     Parallel routines

     PWSCF        :   7m56.50s CPU  10m 6.10s WALL


   This run was terminated on:  14:39:31  23Jun2023            

=------------------------------------------------------------------------------=
   JOB DONE.
=------------------------------------------------------------------------------=
