Ignoring PCI device with non-16bit domain.
Pass --enable-32bits-pci-domain to configure to support such devices
(warning: it would break the library ABI, don't enable unless really needed).

     Program PWSCF v.7.1 starts on 18Jun2023 at 11:39:28 

     This program is part of the open-source Quantum ESPRESSO suite
     for quantum simulation of materials; please cite
         "P. Giannozzi et al., J. Phys.:Condens. Matter 21 395502 (2009);
         "P. Giannozzi et al., J. Phys.:Condens. Matter 29 465901 (2017);
         "P. Giannozzi et al., J. Chem. Phys. 152 154105 (2020);
          URL http://www.quantum-espresso.org", 
     in publications or presentations arising from this work. More details at
     http://www.quantum-espresso.org/quote

     Parallel version (MPI), running on    24 processors

     MPI processes distributed on     1 nodes
     9583 MiB available memory on the printing compute node when the environment starts

     Reading input from Ni_hexagonal_h_atoms.in
Warning: card &CELL ignored
Warning: card   CELL_DOFREE  =  "ALL", ignored
Warning: card   CELL_DYNAMICS  =  "BFGS", ignored
Warning: card / ignored

     Current dimensions of program PWSCF are:
     Max number of different atomic species (ntypx) = 10
     Max number of k-points (npk) =  40000
     Max angular momentum in pseudopotentials (lmaxx) =  4

     K-points division:     npool     =       3
     R & G space division:  proc/nbgrp/npool/nimage =       8
     Subspace diagonalization in iterative solution of the eigenvalue problem:
     a serial algorithm will be used


     Parallelization info
     --------------------
     sticks:   dense  smooth     PW     G-vecs:    dense   smooth      PW
     Min          13      13      5                  169      169      47
     Max          14      14      6                  174      174      48
     Sum         109     109     43                 1375     1375     379

     Using Slab Decomposition



     bravais-lattice index     =            0
     lattice parameter (alat)  =       2.2173  a.u.
     unit-cell volume          =      14.1606 (a.u.)^3
     number of atoms/cell      =            1
     number of atomic types    =            1
     number of electrons       =        18.00
     number of Kohn-Sham states=           13
     kinetic-energy cutoff     =      80.0000  Ry
     charge density cutoff     =     320.0000  Ry
     scf convergence threshold =      1.0E-09
     mixing beta               =       0.7000
     number of iterations used =            8  TF        mixing
     Exchange-correlation= PBE
                           (   1   4   3   4   0   0   0)

     celldm(1)=   2.217272  celldm(2)=   0.000000  celldm(3)=   0.000000
     celldm(4)=   0.000000  celldm(5)=   0.000000  celldm(6)=   0.000000

     crystal axes: (cart. coord. in units of alat)
               a(1) = (   1.000000   0.000000   0.000000 )  
               a(2) = (  -0.500000   0.866025   0.000000 )  
               a(3) = (   0.000000   0.000000   1.500004 )  

     reciprocal axes: (cart. coord. in units 2 pi/alat)
               b(1) = (  1.000000  0.577350 -0.000000 )  
               b(2) = (  0.000000  1.154701  0.000000 )  
               b(3) = (  0.000000 -0.000000  0.666665 )  


     PseudoPot. # 1 for Ni read from file:
     /home/jmgoff/work/automation/qe_pseudos/Ni.upf
     MD5 check sum: 2b0a79d100e227970886d6963e34175b
     Pseudo is Norm-conserving + core correction, Zval = 18.0
     Generated using ONCVPSP code by D. R. Hamann
     Using radial grid of 1372 points,  6 beta functions with: 
                l(1) =   0
                l(2) =   0
                l(3) =   1
                l(4) =   1
                l(5) =   2
                l(6) =   2

     atomic species   valence    mass     pseudopotential
        Ni            18.00    58.69340     Ni( 1.00)

     Starting magnetic structure 
     atomic species   magnetization
        Ni           0.700

     No symmetry found



   Cartesian axes

     site n.     atom                  positions (alat units)
         1           Ni  tau(   1) = (   0.0000000   0.0000000   0.0000000  )

     number of k points=   761  Marzari-Vanderbilt smearing, width (Ry)=  0.0100

     Number of k-points >= 100: set verbosity='high' to print them.

     Dense  grid:     1375 G-vectors     FFT dimensions: (  15,  15,  20)

     Estimated max dynamical RAM per process >       3.81 MB

     Estimated total dynamical RAM >      90.09 MB
     Generating pointlists ...
     new r_m :   0.4125 (alat units)  0.9146 (a.u.) for type    1

     Initial potential from superposition of free atoms

     starting charge      17.9998, renormalised to      18.0000
     Starting wfcs are   10 randomized atomic wfcs +    3 random wfcs

     total cpu time spent up to now is        0.4 secs

     Self-consistent Calculation

     iteration #  1     ecut=    80.00 Ry     beta= 0.70
     Davidson diagonalization with overlap
     ethr =  1.00E-02,  avg # of iterations =  5.8

     total cpu time spent up to now is        2.6 secs

     total energy              =    -325.49540453 Ry
     estimated scf accuracy    <       6.72420590 Ry

     total magnetization       =     0.80 Bohr mag/cell
     absolute magnetization    =     0.80 Bohr mag/cell

     iteration #  2     ecut=    80.00 Ry     beta= 0.70
     Davidson diagonalization with overlap
     ethr =  1.00E-02,  avg # of iterations =  1.0

     total cpu time spent up to now is        3.5 secs

     total energy              =    -325.86606899 Ry
     estimated scf accuracy    <       0.82910879 Ry

     total magnetization       =     0.35 Bohr mag/cell
     absolute magnetization    =     0.35 Bohr mag/cell

     iteration #  3     ecut=    80.00 Ry     beta= 0.70
     Davidson diagonalization with overlap
     ethr =  4.61E-03,  avg # of iterations =  1.0

     total cpu time spent up to now is        4.5 secs

     total energy              =    -325.92462708 Ry
     estimated scf accuracy    <       0.00795146 Ry

     total magnetization       =     0.02 Bohr mag/cell
     absolute magnetization    =     0.03 Bohr mag/cell

     iteration #  4     ecut=    80.00 Ry     beta= 0.70
     Davidson diagonalization with overlap
     ethr =  4.42E-05,  avg # of iterations =  2.4

     total cpu time spent up to now is        5.8 secs

     total energy              =    -325.92550139 Ry
     estimated scf accuracy    <       0.00076917 Ry

     total magnetization       =     0.02 Bohr mag/cell
     absolute magnetization    =     0.02 Bohr mag/cell

     iteration #  5     ecut=    80.00 Ry     beta= 0.70
     Davidson diagonalization with overlap
     ethr =  4.27E-06,  avg # of iterations =  2.0

     total cpu time spent up to now is        7.1 secs

     total energy              =    -325.92560840 Ry
     estimated scf accuracy    <       0.00005836 Ry

     total magnetization       =     0.00 Bohr mag/cell
     absolute magnetization    =     0.00 Bohr mag/cell

     iteration #  6     ecut=    80.00 Ry     beta= 0.70
     Davidson diagonalization with overlap
     ethr =  3.24E-07,  avg # of iterations =  1.5

     total cpu time spent up to now is        8.1 secs

     total energy              =    -325.92562192 Ry
     estimated scf accuracy    <       0.00000147 Ry

     total magnetization       =     0.00 Bohr mag/cell
     absolute magnetization    =     0.00 Bohr mag/cell

     iteration #  7     ecut=    80.00 Ry     beta= 0.70
     Davidson diagonalization with overlap
     ethr =  8.15E-09,  avg # of iterations =  1.5

     total cpu time spent up to now is        9.2 secs

     total energy              =    -325.92562208 Ry
     estimated scf accuracy    <       0.00000008 Ry

     total magnetization       =     0.00 Bohr mag/cell
     absolute magnetization    =     0.00 Bohr mag/cell

     iteration #  8     ecut=    80.00 Ry     beta= 0.70
     Davidson diagonalization with overlap
     ethr =  4.59E-10,  avg # of iterations =  1.6

     total cpu time spent up to now is       10.3 secs

     total energy              =    -325.92562209 Ry
     estimated scf accuracy    <       0.00000002 Ry

     total magnetization       =     0.00 Bohr mag/cell
     absolute magnetization    =     0.00 Bohr mag/cell

     iteration #  9     ecut=    80.00 Ry     beta= 0.70
     Davidson diagonalization with overlap
     ethr =  9.23E-11,  avg # of iterations =  1.2

     Magnetic moment per site  (integrated on atomic sphere of radius R)
     atom   1 (R=0.413)  charge= 12.7572  magn=  0.0000

     total cpu time spent up to now is       11.2 secs

     End of self-consistent calculation

     Number of k-points >= 100: set verbosity='high' to print the bands.

     the Fermi energy is   111.6230 ev

!    total energy              =    -325.92562209 Ry
     estimated scf accuracy    <          5.8E-11 Ry
     smearing contrib. (-TS)   =      -0.00011107 Ry
     internal energy E=F+TS    =    -325.92551102 Ry

     The total energy is F=E-TS. E is the sum of the following terms:
     one-electron contribution =      17.56007993 Ry
     hartree contribution      =      55.58274280 Ry
     xc contribution           =     -48.45587974 Ry
     ewald contribution        =    -350.61245401 Ry

     total magnetization       =     0.00 Bohr mag/cell
     absolute magnetization    =     0.00 Bohr mag/cell

     convergence has been achieved in   9 iterations

     Forces acting on atoms (cartesian axes, Ry/au):

     atom    1 type  1   force =     0.00000000    0.00000000    0.00000000

     Total force =     0.000000     Total SCF correction =     0.000000


     Computing stress (Cartesian axis) and pressure

          total   stress  (Ry/bohr**3)                   (kbar)     P=   183842.20
   1.71819466  -0.00000000   0.00000000       252755.16       -0.00        0.00
  -0.00000000   1.71819466  -0.00000000           -0.00   252755.16       -0.00
   0.00000000  -0.00000000   0.31281239            0.00       -0.00    46016.29


     Writing all to output data dir ./out/pwscf.save/

     init_run     :      0.25s CPU      0.34s WALL (       1 calls)
     electrons    :      8.14s CPU     10.83s WALL (       1 calls)
     forces       :      0.06s CPU      0.08s WALL (       1 calls)
     stress       :      0.11s CPU      0.12s WALL (       1 calls)

     Called by init_run:
     wfcinit      :      0.24s CPU      0.32s WALL (       1 calls)
     potinit      :      0.00s CPU      0.00s WALL (       1 calls)
     hinit0       :      0.01s CPU      0.02s WALL (       1 calls)

     Called by electrons:
     c_bands      :      7.29s CPU      9.67s WALL (       9 calls)
     sum_band     :      0.83s CPU      1.14s WALL (       9 calls)
     v_of_rho     :      0.01s CPU      0.01s WALL (      10 calls)
     mix_rho      :      0.00s CPU      0.00s WALL (       9 calls)

     Called by c_bands:
     init_us_2    :      0.08s CPU      0.10s WALL (   10668 calls)
     init_us_2:cp :      0.07s CPU      0.09s WALL (   10668 calls)
     cegterg      :      6.72s CPU      8.66s WALL (    4572 calls)

     Called by *egterg:
     cdiaghg      :      1.79s CPU      2.19s WALL (   13893 calls)
     h_psi        :      4.20s CPU      5.56s WALL (   14401 calls)
     g_psi        :      0.01s CPU      0.01s WALL (    9321 calls)

     Called by h_psi:
     h_psi:calbec :      0.26s CPU      0.35s WALL (   14401 calls)
     vloc_psi     :      3.73s CPU      4.95s WALL (   14401 calls)
     add_vuspsi   :      0.15s CPU      0.21s WALL (   14401 calls)

     General routines
     calbec       :      0.30s CPU      0.40s WALL (   16941 calls)
     fft          :      0.00s CPU      0.01s WALL (     230 calls)
     ffts         :      0.00s CPU      0.00s WALL (      18 calls)
     fftw         :      4.16s CPU      5.53s WALL (  344698 calls)

     Parallel routines

     PWSCF        :      8.90s CPU     12.38s WALL


   This run was terminated on:  11:39:40  18Jun2023            

=------------------------------------------------------------------------------=
   JOB DONE.
=------------------------------------------------------------------------------=
Note: The following floating-point exceptions are signalling: IEEE_DENORMAL
Note: The following floating-point exceptions are signalling: IEEE_DENORMAL
Note: The following floating-point exceptions are signalling: IEEE_DENORMAL
Note: The following floating-point exceptions are signalling: IEEE_DENORMAL
Note: The following floating-point exceptions are signalling: IEEE_DENORMAL
Note: The following floating-point exceptions are signalling: IEEE_DENORMAL
Note: The following floating-point exceptions are signalling: IEEE_DENORMAL
Note: The following floating-point exceptions are signalling: IEEE_DENORMAL
Note: The following floating-point exceptions are signalling: IEEE_DENORMAL
Note: The following floating-point exceptions are signalling: IEEE_DENORMAL
Note: The following floating-point exceptions are signalling: IEEE_DENORMAL
Note: The following floating-point exceptions are signalling: IEEE_DENORMAL
