Ignoring PCI device with non-16bit domain.
Pass --enable-32bits-pci-domain to configure to support such devices
(warning: it would break the library ABI, don't enable unless really needed).

     Program PWSCF v.7.1 starts on 23Jun2023 at 15:24:41 

     This program is part of the open-source Quantum ESPRESSO suite
     for quantum simulation of materials; please cite
         "P. Giannozzi et al., J. Phys.:Condens. Matter 21 395502 (2009);
         "P. Giannozzi et al., J. Phys.:Condens. Matter 29 465901 (2017);
         "P. Giannozzi et al., J. Chem. Phys. 152 154105 (2020);
          URL http://www.quantum-espresso.org", 
     in publications or presentations arising from this work. More details at
     http://www.quantum-espresso.org/quote

     Parallel version (MPI), running on    24 processors

     MPI processes distributed on     1 nodes
     12283 MiB available memory on the printing compute node when the environment starts

     Reading input from Ni_orthorhombic_fco_atoms.in

     Current dimensions of program PWSCF are:
     Max number of different atomic species (ntypx) = 10
     Max number of k-points (npk) =  40000
     Max angular momentum in pseudopotentials (lmaxx) =  4
     Found identity + (  0.0000  0.0000  0.5000) symmetry
     This is a supercell, fractional translations are disabled

     K-points division:     npool     =       2
     R & G space division:  proc/nbgrp/npool/nimage =      12
     Subspace diagonalization in iterative solution of the eigenvalue problem:
     a serial algorithm will be used


     Parallelization info
     --------------------
     sticks:   dense  smooth     PW     G-vecs:    dense   smooth      PW
     Min          55      27     10                 1859      652     139
     Max          56      28     11                 1862      657     142
     Sum         667     329    123                22323     7845    1687

     Using Slab Decomposition



     bravais-lattice index     =            0
     lattice parameter (alat)  =       4.8119  a.u.
     unit-cell volume          =     125.5523 (a.u.)^3
     number of atoms/cell      =            2
     number of atomic types    =            1
     number of electrons       =        36.00
     number of Kohn-Sham states=           22
     kinetic-energy cutoff     =      60.0000  Ry
     charge density cutoff     =     480.0000  Ry
     scf convergence threshold =      1.0E-06
     mixing beta               =       0.7000
     number of iterations used =            8  TF        mixing
     energy convergence thresh.=      1.0E-05
     force convergence thresh. =      1.0E-04
     press convergence thresh. =      5.0E-01
     Exchange-correlation= PBE
                           (   1   4   3   4   0   0   0)
     nstep                     =           50


     celldm(1)=   4.811923  celldm(2)=   0.000000  celldm(3)=   0.000000
     celldm(4)=   0.000000  celldm(5)=   0.000000  celldm(6)=   0.000000

     crystal axes: (cart. coord. in units of alat)
               a(1) = (   1.000000   0.000000   0.000000 )  
               a(2) = (   0.539936   0.753588   0.000000 )  
               a(3) = (   0.920128   0.188656   1.495321 )  

     reciprocal axes: (cart. coord. in units 2 pi/alat)
               b(1) = (  1.000000 -0.716487 -0.524943 )  
               b(2) = (  0.000000  1.326984 -0.167418 )  
               b(3) = (  0.000000  0.000000  0.668753 )  


     PseudoPot. # 1 for Ni read from file:
     /home/jmgoff/work/automation/qe_pseudos/Ni.upf
     MD5 check sum: caf20d35bef94d268ef04de15446df97
     Pseudo is Ultrasoft + core correction, Zval = 18.0
     Generated using 'atomic' code by A. Dal Corso  v.7.1
     Using radial grid of 1195 points,  6 beta functions with: 
                l(1) =   0
                l(2) =   0
                l(3) =   1
                l(4) =   1
                l(5) =   2
                l(6) =   2
     Q(r) pseudized with 0 coefficients 


     atomic species   valence    mass     pseudopotential
        Ni            18.00    58.69340     Ni( 1.00)

     Starting magnetic structure 
     atomic species   magnetization
        Ni           1.000

     No symmetry found



   Cartesian axes

     site n.     atom                  positions (alat units)
         1           Ni  tau(   1) = (   0.0000000   0.0000000   0.0000000  )
         2           Ni  tau(   2) = (   0.4600640   0.0943279   0.7476607  )

     number of k points=   226  Marzari-Vanderbilt smearing, width (Ry)=  0.0100

     Number of k-points >= 100: set verbosity='high' to print them.

     Dense  grid:    22323 G-vectors     FFT dimensions: (  36,  32,  60)

     Smooth grid:     7845 G-vectors     FFT dimensions: (  24,  24,  45)

     Estimated max dynamical RAM per process >      14.64 MB

     Estimated total dynamical RAM >     340.57 MB

     Check: negative core charge=   -0.000002
     Generating pointlists ...
     new r_m :   0.3642 (alat units)  1.7525 (a.u.) for type    1

     Initial potential from superposition of free atoms

     starting charge      35.9995, renormalised to      36.0000
     Starting wfcs are   20 randomized atomic wfcs +    2 random wfcs

     total cpu time spent up to now is        0.9 secs

     Self-consistent Calculation

     iteration #  1     ecut=    60.00 Ry     beta= 0.70
     Davidson diagonalization with overlap
     ethr =  1.00E-02,  avg # of iterations =  5.4

     total cpu time spent up to now is        4.5 secs

     total energy              =    -673.94270902 Ry
     estimated scf accuracy    <      16.78720823 Ry

     total magnetization       =     8.00 Bohr mag/cell
     absolute magnetization    =     8.93 Bohr mag/cell

     iteration #  2     ecut=    60.00 Ry     beta= 0.70
     Davidson diagonalization with overlap
     ethr =  1.00E-02,  avg # of iterations =  2.9

     total cpu time spent up to now is        7.7 secs

     total energy              =    -677.84223069 Ry
     estimated scf accuracy    <       7.96996582 Ry

     total magnetization       =     2.08 Bohr mag/cell
     absolute magnetization    =     2.96 Bohr mag/cell

     iteration #  3     ecut=    60.00 Ry     beta= 0.70
     Davidson diagonalization with overlap
     ethr =  1.00E-02,  avg # of iterations =  2.0

     negative rho (up, down):  0.000E+00 3.727E-04

     total cpu time spent up to now is       10.3 secs

     total energy              =    -679.32640834 Ry
     estimated scf accuracy    <       1.43579539 Ry

     total magnetization       =     2.75 Bohr mag/cell
     absolute magnetization    =     3.76 Bohr mag/cell

     iteration #  4     ecut=    60.00 Ry     beta= 0.70
     Davidson diagonalization with overlap
     ethr =  3.99E-03,  avg # of iterations =  3.1

     total cpu time spent up to now is       13.2 secs

     total energy              =    -669.53180090 Ry
     estimated scf accuracy    <     567.83473266 Ry

     total magnetization       =     1.25 Bohr mag/cell
     absolute magnetization    =    47.70 Bohr mag/cell

     iteration #  5     ecut=    60.00 Ry     beta= 0.70
     Davidson diagonalization with overlap
     ethr =  3.99E-03,  avg # of iterations =  2.8

     total cpu time spent up to now is       16.0 secs

     total energy              =    -679.20088877 Ry
     estimated scf accuracy    <       3.98013659 Ry

     total magnetization       =     1.46 Bohr mag/cell
     absolute magnetization    =     3.88 Bohr mag/cell

     iteration #  6     ecut=    60.00 Ry     beta= 0.70
     Davidson diagonalization with overlap
     ethr =  3.99E-03,  avg # of iterations =  2.0

     total cpu time spent up to now is       18.4 secs

     total energy              =    -678.80013257 Ry
     estimated scf accuracy    <      29.30049961 Ry

     total magnetization       =     1.26 Bohr mag/cell
     absolute magnetization    =    11.20 Bohr mag/cell

     iteration #  7     ecut=    60.00 Ry     beta= 0.70
     Davidson diagonalization with overlap
     ethr =  3.99E-03,  avg # of iterations =  2.0

     total cpu time spent up to now is       21.0 secs

     total energy              =    -679.10380198 Ry
     estimated scf accuracy    <       1.88279383 Ry

     total magnetization       =     1.38 Bohr mag/cell
     absolute magnetization    =     2.64 Bohr mag/cell

     iteration #  8     ecut=    60.00 Ry     beta= 0.70
     Davidson diagonalization with overlap
     ethr =  3.99E-03,  avg # of iterations =  2.0

     total cpu time spent up to now is       23.2 secs

     total energy              =    -679.15233083 Ry
     estimated scf accuracy    <       4.36087042 Ry

     total magnetization       =     1.19 Bohr mag/cell
     absolute magnetization    =     4.59 Bohr mag/cell

     iteration #  9     ecut=    60.00 Ry     beta= 0.70
     Davidson diagonalization with overlap
     ethr =  3.99E-03,  avg # of iterations =  1.0

     total cpu time spent up to now is       25.1 secs

     total energy              =    -679.12169626 Ry
     estimated scf accuracy    <       1.79005869 Ry

     total magnetization       =     1.20 Bohr mag/cell
     absolute magnetization    =     3.07 Bohr mag/cell

     iteration # 10     ecut=    60.00 Ry     beta= 0.70
     Davidson diagonalization with overlap
     ethr =  3.99E-03,  avg # of iterations =  1.0

     total cpu time spent up to now is       26.9 secs

     total energy              =    -679.14182227 Ry
     estimated scf accuracy    <       0.52127799 Ry

     total magnetization       =     1.18 Bohr mag/cell
     absolute magnetization    =     2.09 Bohr mag/cell

     iteration # 11     ecut=    60.00 Ry     beta= 0.70
     Davidson diagonalization with overlap
     ethr =  1.45E-03,  avg # of iterations =  1.4

     total cpu time spent up to now is       28.9 secs

     total energy              =    -679.14110805 Ry
     estimated scf accuracy    <       1.09998884 Ry

     total magnetization       =     1.15 Bohr mag/cell
     absolute magnetization    =     2.67 Bohr mag/cell

     iteration # 12     ecut=    60.00 Ry     beta= 0.70
     Davidson diagonalization with overlap
     ethr =  1.45E-03,  avg # of iterations =  1.0

     total cpu time spent up to now is       30.8 secs

     total energy              =    -679.13585472 Ry
     estimated scf accuracy    <       0.28914488 Ry

     total magnetization       =     1.16 Bohr mag/cell
     absolute magnetization    =     1.79 Bohr mag/cell

     iteration # 13     ecut=    60.00 Ry     beta= 0.70
     Davidson diagonalization with overlap
     ethr =  8.03E-04,  avg # of iterations =  1.3

     total cpu time spent up to now is       32.8 secs

     total energy              =    -679.13961691 Ry
     estimated scf accuracy    <       0.03410830 Ry

     total magnetization       =     1.11 Bohr mag/cell
     absolute magnetization    =     1.33 Bohr mag/cell

     iteration # 14     ecut=    60.00 Ry     beta= 0.70
     Davidson diagonalization with overlap
     ethr =  9.47E-05,  avg # of iterations =  2.2

     total cpu time spent up to now is       35.4 secs

     total energy              =    -679.14702105 Ry
     estimated scf accuracy    <       0.35256518 Ry

     total magnetization       =     1.17 Bohr mag/cell
     absolute magnetization    =     1.66 Bohr mag/cell

     iteration # 15     ecut=    60.00 Ry     beta= 0.70
     Davidson diagonalization with overlap
     ethr =  9.47E-05,  avg # of iterations =  2.0

     total cpu time spent up to now is       37.8 secs

     total energy              =    -679.11752450 Ry
     estimated scf accuracy    <       1.52916174 Ry

     total magnetization       =     1.09 Bohr mag/cell
     absolute magnetization    =     2.72 Bohr mag/cell

     iteration # 16     ecut=    60.00 Ry     beta= 0.70
     Davidson diagonalization with overlap
     ethr =  9.47E-05,  avg # of iterations =  2.0

     total cpu time spent up to now is       40.3 secs

     total energy              =    -679.14411019 Ry
     estimated scf accuracy    <       0.00326411 Ry

     total magnetization       =     1.10 Bohr mag/cell
     absolute magnetization    =     1.27 Bohr mag/cell

     iteration # 17     ecut=    60.00 Ry     beta= 0.70
     Davidson diagonalization with overlap
     ethr =  9.07E-06,  avg # of iterations =  2.4

     total cpu time spent up to now is       42.8 secs

     total energy              =    -679.14430767 Ry
     estimated scf accuracy    <       0.12813223 Ry

     total magnetization       =     1.09 Bohr mag/cell
     absolute magnetization    =     1.52 Bohr mag/cell

     iteration # 18     ecut=    60.00 Ry     beta= 0.70
     Davidson diagonalization with overlap
     ethr =  9.07E-06,  avg # of iterations =  2.0

     total cpu time spent up to now is       45.2 secs

     total energy              =    -679.14536204 Ry
     estimated scf accuracy    <       0.08110985 Ry

     total magnetization       =     1.09 Bohr mag/cell
     absolute magnetization    =     1.38 Bohr mag/cell

     iteration # 19     ecut=    60.00 Ry     beta= 0.70
     Davidson diagonalization with overlap
     ethr =  9.07E-06,  avg # of iterations =  2.0

     total cpu time spent up to now is       47.6 secs

     total energy              =    -679.14503776 Ry
     estimated scf accuracy    <       0.13781567 Ry

     total magnetization       =     1.07 Bohr mag/cell
     absolute magnetization    =     1.49 Bohr mag/cell

     iteration # 20     ecut=    60.00 Ry     beta= 0.70
     Davidson diagonalization with overlap
     ethr =  9.07E-06,  avg # of iterations =  2.0

     total cpu time spent up to now is       50.2 secs

     total energy              =    -679.14498247 Ry
     estimated scf accuracy    <       0.24985331 Ry

     total magnetization       =     1.08 Bohr mag/cell
     absolute magnetization    =     1.67 Bohr mag/cell

     iteration # 21     ecut=    60.00 Ry     beta= 0.70
     Davidson diagonalization with overlap
     ethr =  9.07E-06,  avg # of iterations =  2.0

     total cpu time spent up to now is       52.5 secs

     total energy              =    -679.14475586 Ry
     estimated scf accuracy    <       0.12696317 Ry

     total magnetization       =     1.09 Bohr mag/cell
     absolute magnetization    =     1.47 Bohr mag/cell

     iteration # 22     ecut=    60.00 Ry     beta= 0.70
     Davidson diagonalization with overlap
     ethr =  9.07E-06,  avg # of iterations =  2.0

     total cpu time spent up to now is       55.0 secs

     total energy              =    -679.14148867 Ry
     estimated scf accuracy    <       0.17114425 Ry

     total magnetization       =     1.09 Bohr mag/cell
     absolute magnetization    =     1.60 Bohr mag/cell

     iteration # 23     ecut=    60.00 Ry     beta= 0.70
     Davidson diagonalization with overlap
     ethr =  9.07E-06,  avg # of iterations =  2.0

     total cpu time spent up to now is       57.4 secs

     total energy              =    -679.14447015 Ry
     estimated scf accuracy    <       0.01100994 Ry

     total magnetization       =     1.08 Bohr mag/cell
     absolute magnetization    =     1.25 Bohr mag/cell

     iteration # 24     ecut=    60.00 Ry     beta= 0.70
     Davidson diagonalization with overlap
     ethr =  9.07E-06,  avg # of iterations =  2.0

     total cpu time spent up to now is       59.7 secs

     total energy              =    -679.14370325 Ry
     estimated scf accuracy    <       0.03729880 Ry

     total magnetization       =     1.08 Bohr mag/cell
     absolute magnetization    =     1.33 Bohr mag/cell

     iteration # 25     ecut=    60.00 Ry     beta= 0.70
     Davidson diagonalization with overlap
     ethr =  9.07E-06,  avg # of iterations =  2.0

     total cpu time spent up to now is       62.2 secs

     total energy              =    -679.15095833 Ry
     estimated scf accuracy    <       0.25471539 Ry

     total magnetization       =     1.07 Bohr mag/cell
     absolute magnetization    =     1.65 Bohr mag/cell

     iteration # 26     ecut=    60.00 Ry     beta= 0.70
     Davidson diagonalization with overlap
     ethr =  9.07E-06,  avg # of iterations =  2.0

     total cpu time spent up to now is       64.8 secs

     total energy              =    -679.14792263 Ry
     estimated scf accuracy    <       0.54719442 Ry

     total magnetization       =     1.05 Bohr mag/cell
     absolute magnetization    =     1.91 Bohr mag/cell

     iteration # 27     ecut=    60.00 Ry     beta= 0.70
     Davidson diagonalization with overlap
     ethr =  9.07E-06,  avg # of iterations =  2.9

     total cpu time spent up to now is       67.7 secs

     total energy              =    -679.13541744 Ry
     estimated scf accuracy    <       1.67280513 Ry

     total magnetization       =     1.04 Bohr mag/cell
     absolute magnetization    =     2.89 Bohr mag/cell

     iteration # 28     ecut=    60.00 Ry     beta= 0.70
     Davidson diagonalization with overlap
     ethr =  9.07E-06,  avg # of iterations =  2.7

     total cpu time spent up to now is       70.5 secs

     total energy              =    -679.14844200 Ry
     estimated scf accuracy    <       0.46405578 Ry

     total magnetization       =     1.06 Bohr mag/cell
     absolute magnetization    =     1.75 Bohr mag/cell

     iteration # 29     ecut=    60.00 Ry     beta= 0.70
     Davidson diagonalization with overlap
     ethr =  9.07E-06,  avg # of iterations =  2.0

     total cpu time spent up to now is       72.9 secs

     total energy              =    -679.14775010 Ry
     estimated scf accuracy    <       0.43473639 Ry

     total magnetization       =     1.05 Bohr mag/cell
     absolute magnetization    =     1.77 Bohr mag/cell

     iteration # 30     ecut=    60.00 Ry     beta= 0.70
     Davidson diagonalization with overlap
     ethr =  9.07E-06,  avg # of iterations =  2.0

     total cpu time spent up to now is       75.4 secs

     total energy              =    -679.14766744 Ry
     estimated scf accuracy    <       0.58046093 Ry

     total magnetization       =     1.06 Bohr mag/cell
     absolute magnetization    =     2.06 Bohr mag/cell

     iteration # 31     ecut=    60.00 Ry     beta= 0.70
     Davidson diagonalization with overlap
     ethr =  9.07E-06,  avg # of iterations =  2.0

     total cpu time spent up to now is       77.9 secs

     total energy              =    -679.14670173 Ry
     estimated scf accuracy    <       0.35253355 Ry

     total magnetization       =     1.06 Bohr mag/cell
     absolute magnetization    =     1.73 Bohr mag/cell

     iteration # 32     ecut=    60.00 Ry     beta= 0.70
     Davidson diagonalization with overlap
     ethr =  9.07E-06,  avg # of iterations =  2.0

     total cpu time spent up to now is       80.4 secs

     total energy              =    -679.15487065 Ry
     estimated scf accuracy    <       0.43330988 Ry

     total magnetization       =     1.06 Bohr mag/cell
     absolute magnetization    =     1.92 Bohr mag/cell

     iteration # 33     ecut=    60.00 Ry     beta= 0.70
     Davidson diagonalization with overlap
     ethr =  9.07E-06,  avg # of iterations =  4.2

     total cpu time spent up to now is       83.9 secs

     total energy              =    -679.13091046 Ry
     estimated scf accuracy    <       7.26315196 Ry

     total magnetization       =     1.02 Bohr mag/cell
     absolute magnetization    =     5.57 Bohr mag/cell

     iteration # 34     ecut=    60.00 Ry     beta= 0.70
     Davidson diagonalization with overlap
     ethr =  9.07E-06,  avg # of iterations =  6.2

     total cpu time spent up to now is       88.4 secs

     total energy              =    -678.41801668 Ry
     estimated scf accuracy    <      63.61570562 Ry

     total magnetization       =     0.94 Bohr mag/cell
     absolute magnetization    =    14.36 Bohr mag/cell

     iteration # 35     ecut=    60.00 Ry     beta= 0.70
     Davidson diagonalization with overlap
     ethr =  9.07E-06,  avg # of iterations =  6.4

     total cpu time spent up to now is       93.1 secs

     total energy              =    -679.25855241 Ry
     estimated scf accuracy    <      10.32958542 Ry

     total magnetization       =     0.97 Bohr mag/cell
     absolute magnetization    =     4.99 Bohr mag/cell

     iteration # 36     ecut=    60.00 Ry     beta= 0.70
     Davidson diagonalization with overlap
     ethr =  9.07E-06,  avg # of iterations =  5.2

     total cpu time spent up to now is       97.4 secs

     total energy              =    -679.15082486 Ry
     estimated scf accuracy    <      29.03447647 Ry

     total magnetization       =     0.97 Bohr mag/cell
     absolute magnetization    =    10.37 Bohr mag/cell

     iteration # 37     ecut=    60.00 Ry     beta= 0.70
     Davidson diagonalization with overlap
     ethr =  9.07E-06,  avg # of iterations =  4.2

     total cpu time spent up to now is      101.2 secs

     total energy              =    -679.09585696 Ry
     estimated scf accuracy    <      11.39025143 Ry

     total magnetization       =     1.05 Bohr mag/cell
     absolute magnetization    =     6.15 Bohr mag/cell

     iteration # 38     ecut=    60.00 Ry     beta= 0.70
     Davidson diagonalization with overlap
     ethr =  9.07E-06,  avg # of iterations =  4.5

     total cpu time spent up to now is      105.0 secs

     total energy              =    -679.22641552 Ry
     estimated scf accuracy    <       5.33236532 Ry

     total magnetization       =     1.02 Bohr mag/cell
     absolute magnetization    =     4.41 Bohr mag/cell

     iteration # 39     ecut=    60.00 Ry     beta= 0.70
     Davidson diagonalization with overlap
     ethr =  9.07E-06,  avg # of iterations =  3.0

     total cpu time spent up to now is      108.2 secs

     total energy              =    -679.25743843 Ry
     estimated scf accuracy    <       7.51435292 Ry

     total magnetization       =     1.05 Bohr mag/cell
     absolute magnetization    =     5.05 Bohr mag/cell

     iteration # 40     ecut=    60.00 Ry     beta= 0.70
     Davidson diagonalization with overlap
     ethr =  9.07E-06,  avg # of iterations =  4.3

     total cpu time spent up to now is      111.7 secs

     total energy              =    -679.03675495 Ry
     estimated scf accuracy    <      15.69608922 Ry

     total magnetization       =     0.92 Bohr mag/cell
     absolute magnetization    =     7.56 Bohr mag/cell

     iteration # 41     ecut=    60.00 Ry     beta= 0.70
     Davidson diagonalization with overlap
     ethr =  9.07E-06,  avg # of iterations =  6.5

     negative rho (up, down):  0.000E+00 4.919E-03

     total cpu time spent up to now is      116.4 secs

     total energy              =    -678.45656847 Ry
     estimated scf accuracy    <      69.75047278 Ry

     total magnetization       =     0.90 Bohr mag/cell
     absolute magnetization    =    16.46 Bohr mag/cell

     iteration # 42     ecut=    60.00 Ry     beta= 0.70
     Davidson diagonalization with overlap
     ethr =  9.07E-06,  avg # of iterations =  8.6

     negative rho (up, down):  6.803E-03 7.256E-04

     total cpu time spent up to now is      122.8 secs

     total energy              =    -672.84350398 Ry
     estimated scf accuracy    <     460.81378391 Ry

     total magnetization       =     0.97 Bohr mag/cell
     absolute magnetization    =    43.02 Bohr mag/cell

     iteration # 43     ecut=    60.00 Ry     beta= 0.70
     Davidson diagonalization with overlap
     ethr =  9.07E-06,  avg # of iterations =  8.9

     negative rho (up, down):  2.960E-03 1.698E-03

     total cpu time spent up to now is      129.4 secs

     total energy              =    -677.52680122 Ry
     estimated scf accuracy    <     355.03999377 Ry

     total magnetization       =     0.57 Bohr mag/cell
     absolute magnetization    =    37.67 Bohr mag/cell

     iteration # 44     ecut=    60.00 Ry     beta= 0.70
     Davidson diagonalization with overlap
     ethr =  9.07E-06,  avg # of iterations =  7.2

     negative rho (up, down):  1.639E-03 1.104E-03

     total cpu time spent up to now is      135.0 secs

     total energy              =    -681.63916535 Ry
     estimated scf accuracy    <     124.60214154 Ry

     total magnetization       =     0.45 Bohr mag/cell
     absolute magnetization    =    20.85 Bohr mag/cell

     iteration # 45     ecut=    60.00 Ry     beta= 0.70
     Davidson diagonalization with overlap
     ethr =  9.07E-06,  avg # of iterations =  5.5

     total cpu time spent up to now is      139.4 secs

     total energy              =    -675.21273527 Ry
     estimated scf accuracy    <     228.23203258 Ry

     total magnetization       =     0.61 Bohr mag/cell
     absolute magnetization    =    29.35 Bohr mag/cell

     iteration # 46     ecut=    60.00 Ry     beta= 0.70
     Davidson diagonalization with overlap
     ethr =  9.07E-06,  avg # of iterations =  8.2

     total cpu time spent up to now is      145.3 secs

     total energy              =    -679.24368246 Ry
     estimated scf accuracy    <      10.31665590 Ry

     total magnetization       =     0.98 Bohr mag/cell
     absolute magnetization    =     5.43 Bohr mag/cell

     iteration # 47     ecut=    60.00 Ry     beta= 0.70
     Davidson diagonalization with overlap
     ethr =  9.07E-06,  avg # of iterations =  3.7

     total cpu time spent up to now is      149.0 secs

     total energy              =    -679.19677363 Ry
     estimated scf accuracy    <      12.61692936 Ry

     total magnetization       =     0.92 Bohr mag/cell
     absolute magnetization    =     7.20 Bohr mag/cell

     iteration # 48     ecut=    60.00 Ry     beta= 0.70
     Davidson diagonalization with overlap
     ethr =  9.07E-06,  avg # of iterations =  5.7

     negative rho (up, down):  3.314E-03 5.126E-03

     total cpu time spent up to now is      153.7 secs

     total energy              =    -681.72587402 Ry
     estimated scf accuracy    <      25.40287262 Ry

     total magnetization       =     1.00 Bohr mag/cell
     absolute magnetization    =     9.03 Bohr mag/cell

     iteration # 49     ecut=    60.00 Ry     beta= 0.70
     Davidson diagonalization with overlap
     ethr =  9.07E-06,  avg # of iterations =  8.6

     negative rho (up, down):  4.124E-04 1.473E-02

     total cpu time spent up to now is      159.9 secs

     total energy              =    -673.93969405 Ry
     estimated scf accuracy    <     584.17815206 Ry

     total magnetization       =     0.21 Bohr mag/cell
     absolute magnetization    =    48.21 Bohr mag/cell

     iteration # 50     ecut=    60.00 Ry     beta= 0.70
     Davidson diagonalization with overlap
     ethr =  9.07E-06,  avg # of iterations =  8.9

     negative rho (up, down):  8.268E-05 0.000E+00

     total cpu time spent up to now is      166.7 secs

     total energy              =    -676.91497896 Ry
     estimated scf accuracy    <     364.49184568 Ry

     total magnetization       =     0.49 Bohr mag/cell
     absolute magnetization    =    37.76 Bohr mag/cell

     iteration # 51     ecut=    60.00 Ry     beta= 0.70
     Davidson diagonalization with overlap
     ethr =  9.07E-06,  avg # of iterations =  8.3

     negative rho (up, down):  0.000E+00 1.627E-04

     total cpu time spent up to now is      172.5 secs

     total energy              =    -678.66283939 Ry
     estimated scf accuracy    <     239.01749577 Ry

     total magnetization       =     0.34 Bohr mag/cell
     absolute magnetization    =    29.84 Bohr mag/cell

     iteration # 52     ecut=    60.00 Ry     beta= 0.70
     Davidson diagonalization with overlap
     ethr =  9.07E-06,  avg # of iterations =  6.5

     total cpu time spent up to now is      177.5 secs

     total energy              =    -678.30672536 Ry
     estimated scf accuracy    <      65.61983548 Ry

     total magnetization       =     0.76 Bohr mag/cell
     absolute magnetization    =    15.30 Bohr mag/cell

     iteration # 53     ecut=    60.00 Ry     beta= 0.70
     Davidson diagonalization with overlap
     c_bands:  1 eigenvalues not converged
     ethr =  9.07E-06,  avg # of iterations =  6.9

     total cpu time spent up to now is      182.7 secs

     total energy              =    -679.62378102 Ry
     estimated scf accuracy    <      20.67749023 Ry

     total magnetization       =     0.88 Bohr mag/cell
     absolute magnetization    =     7.71 Bohr mag/cell

     iteration # 54     ecut=    60.00 Ry     beta= 0.70
     Davidson diagonalization with overlap
     c_bands:  1 eigenvalues not converged
     ethr =  9.07E-06,  avg # of iterations =  4.9

     total cpu time spent up to now is      186.9 secs

     total energy              =    -678.50024703 Ry
     estimated scf accuracy    <      54.78479332 Ry

     total magnetization       =     0.85 Bohr mag/cell
     absolute magnetization    =    14.43 Bohr mag/cell

     iteration # 55     ecut=    60.00 Ry     beta= 0.70
     Davidson diagonalization with overlap
     ethr =  9.07E-06,  avg # of iterations =  6.2

     negative rho (up, down):  1.685E-04 0.000E+00

     total cpu time spent up to now is      191.5 secs

     total energy              =    -679.49071450 Ry
     estimated scf accuracy    <      17.92971581 Ry

     total magnetization       =     1.00 Bohr mag/cell
     absolute magnetization    =     7.53 Bohr mag/cell

     iteration # 56     ecut=    60.00 Ry     beta= 0.70
     Davidson diagonalization with overlap
     ethr =  9.07E-06,  avg # of iterations =  6.6

     negative rho (up, down):  1.727E-02 2.767E-02

     total cpu time spent up to now is      196.3 secs

     total energy              =    -681.15735948 Ry
     estimated scf accuracy    <      65.99117373 Ry

     total magnetization       =     0.49 Bohr mag/cell
     absolute magnetization    =    14.76 Bohr mag/cell

     iteration # 57     ecut=    60.00 Ry     beta= 0.70
     Davidson diagonalization with overlap
     ethr =  9.07E-06,  avg # of iterations =  8.7

     negative rho (up, down):  6.356E-02 5.490E-02

     total cpu time spent up to now is      202.8 secs

     total energy              =    -686.34651330 Ry
     estimated scf accuracy    <     518.49187918 Ry

     total magnetization       =     0.54 Bohr mag/cell
     absolute magnetization    =    43.76 Bohr mag/cell

     iteration # 58     ecut=    60.00 Ry     beta= 0.70
     Davidson diagonalization with overlap
     ethr =  9.07E-06,  avg # of iterations =  8.7

     negative rho (up, down):  5.679E-03 5.537E-04

     total cpu time spent up to now is      209.4 secs

     total energy              =    -679.26412199 Ry
     estimated scf accuracy    <     689.00979824 Ry

     total magnetization       =     0.64 Bohr mag/cell
     absolute magnetization    =    43.67 Bohr mag/cell

     iteration # 59     ecut=    60.00 Ry     beta= 0.70
     Davidson diagonalization with overlap
     ethr =  9.07E-06,  avg # of iterations =  9.3

     negative rho (up, down):  0.000E+00 5.323E-03

     total cpu time spent up to now is      216.4 secs

     total energy              =    -678.26881025 Ry
     estimated scf accuracy    <     382.64942273 Ry

     total magnetization       =     0.44 Bohr mag/cell
     absolute magnetization    =    37.34 Bohr mag/cell

     iteration # 60     ecut=    60.00 Ry     beta= 0.70
     Davidson diagonalization with overlap
     ethr =  9.07E-06,  avg # of iterations =  8.4

     negative rho (up, down):  9.777E-04 4.317E-03

     total cpu time spent up to now is      222.6 secs

     total energy              =    -677.97908146 Ry
     estimated scf accuracy    <     330.94570987 Ry

     total magnetization       =     1.02 Bohr mag/cell
     absolute magnetization    =    34.21 Bohr mag/cell

     iteration # 61     ecut=    60.00 Ry     beta= 0.70
     Davidson diagonalization with overlap
     ethr =  9.07E-06,  avg # of iterations =  8.8

     negative rho (up, down):  1.782E-02 0.000E+00

     total cpu time spent up to now is      229.1 secs

     total energy              =    -674.53673634 Ry
     estimated scf accuracy    <     499.25942732 Ry

     total magnetization       =     0.71 Bohr mag/cell
     absolute magnetization    =    43.19 Bohr mag/cell

     iteration # 62     ecut=    60.00 Ry     beta= 0.70
     Davidson diagonalization with overlap
     ethr =  9.07E-06,  avg # of iterations =  8.5

     negative rho (up, down):  1.740E-02 2.580E-03

     total cpu time spent up to now is      235.3 secs

     total energy              =    -681.64254600 Ry
     estimated scf accuracy    <     183.24744363 Ry

     total magnetization       =     0.37 Bohr mag/cell
     absolute magnetization    =    26.18 Bohr mag/cell

     iteration # 63     ecut=    60.00 Ry     beta= 0.70
     Davidson diagonalization with overlap
     ethr =  9.07E-06,  avg # of iterations =  6.0

     total cpu time spent up to now is      240.4 secs

     total energy              =    -677.53135498 Ry
     estimated scf accuracy    <     217.80334887 Ry

     total magnetization       =     0.10 Bohr mag/cell
     absolute magnetization    =    27.12 Bohr mag/cell

     iteration # 64     ecut=    60.00 Ry     beta= 0.70
     Davidson diagonalization with overlap
     ethr =  9.07E-06,  avg # of iterations =  7.7

     negative rho (up, down):  8.459E-03 2.203E-02

     total cpu time spent up to now is      246.2 secs

     total energy              =    -679.88447961 Ry
     estimated scf accuracy    <      76.16635197 Ry

     total magnetization       =     0.57 Bohr mag/cell
     absolute magnetization    =    17.16 Bohr mag/cell

     iteration # 65     ecut=    60.00 Ry     beta= 0.70
     Davidson diagonalization with overlap
     ethr =  9.07E-06,  avg # of iterations =  7.0

     negative rho (up, down):  1.132E-02 9.820E-03

     total cpu time spent up to now is      251.7 secs

     total energy              =    -679.17393433 Ry
     estimated scf accuracy    <     131.14086952 Ry

     total magnetization       =    -0.08 Bohr mag/cell
     absolute magnetization    =    20.80 Bohr mag/cell

     iteration # 66     ecut=    60.00 Ry     beta= 0.70
     Davidson diagonalization with overlap
     ethr =  9.07E-06,  avg # of iterations =  7.9

     negative rho (up, down):  4.152E-01 8.580E-01

     total cpu time spent up to now is      257.6 secs

     total energy              =    -681.55503253 Ry
     estimated scf accuracy    <     160.82959349 Ry

     total magnetization       =     0.31 Bohr mag/cell
     absolute magnetization    =    21.96 Bohr mag/cell

     iteration # 67     ecut=    60.00 Ry     beta= 0.70
     Davidson diagonalization with overlap
     c_bands:  1 eigenvalues not converged
     c_bands:  1 eigenvalues not converged
     c_bands:  1 eigenvalues not converged
     c_bands:  1 eigenvalues not converged
     c_bands:  1 eigenvalues not converged
     c_bands:  1 eigenvalues not converged
     c_bands:  2 eigenvalues not converged
     c_bands:  1 eigenvalues not converged
     c_bands:  1 eigenvalues not converged
     c_bands:  1 eigenvalues not converged
     c_bands:  1 eigenvalues not converged
     c_bands:  1 eigenvalues not converged
     c_bands:  1 eigenvalues not converged
     c_bands:  1 eigenvalues not converged
     c_bands:  1 eigenvalues not converged
     ethr =  9.07E-06,  avg # of iterations = 13.5

     negative rho (up, down):  4.434E-01 6.203E-01

     total cpu time spent up to now is      267.5 secs

     total energy              =    -767.22637566 Ry
     estimated scf accuracy    <    2440.12071596 Ry

     total magnetization       =     0.48 Bohr mag/cell
     absolute magnetization    =    86.47 Bohr mag/cell

     iteration # 68     ecut=    60.00 Ry     beta= 0.70
     Davidson diagonalization with overlap
     c_bands:  1 eigenvalues not converged
     c_bands:  1 eigenvalues not converged
     c_bands:  1 eigenvalues not converged
     c_bands:  1 eigenvalues not converged
     c_bands:  1 eigenvalues not converged
     c_bands:  1 eigenvalues not converged
     c_bands:  1 eigenvalues not converged
     ethr =  9.07E-06,  avg # of iterations = 12.3

     negative rho (up, down):  1.039E-01 1.474E-01

     total cpu time spent up to now is      277.2 secs

     total energy              =    -635.48461519 Ry
     estimated scf accuracy    <    2601.87959098 Ry

     total magnetization       =     0.01 Bohr mag/cell
     absolute magnetization    =    61.82 Bohr mag/cell

     iteration # 69     ecut=    60.00 Ry     beta= 0.70
     Davidson diagonalization with overlap
     c_bands:  1 eigenvalues not converged
     ethr =  9.07E-06,  avg # of iterations = 12.3

     negative rho (up, down):  1.448E-02 0.000E+00

     total cpu time spent up to now is      286.2 secs

     total energy              =    -656.57560660 Ry
     estimated scf accuracy    <     848.31697722 Ry

     total magnetization       =     1.31 Bohr mag/cell
     absolute magnetization    =    22.90 Bohr mag/cell

     iteration # 70     ecut=    60.00 Ry     beta= 0.70
     Davidson diagonalization with overlap
     c_bands:  1 eigenvalues not converged
     ethr =  9.07E-06,  avg # of iterations = 10.1

     negative rho (up, down):  1.376E-02 0.000E+00

     total cpu time spent up to now is      293.9 secs

     total energy              =    -679.71884916 Ry
     estimated scf accuracy    <     567.20931300 Ry

     total magnetization       =     0.50 Bohr mag/cell
     absolute magnetization    =    47.40 Bohr mag/cell

     iteration # 71     ecut=    60.00 Ry     beta= 0.70
     Davidson diagonalization with overlap
     c_bands:  1 eigenvalues not converged
     ethr =  9.07E-06,  avg # of iterations =  8.8

     negative rho (up, down):  2.837E-01 6.525E-02

     total cpu time spent up to now is      300.5 secs

     total energy              =    -678.24761173 Ry
     estimated scf accuracy    <     606.58661734 Ry

     total magnetization       =     0.25 Bohr mag/cell
     absolute magnetization    =    46.88 Bohr mag/cell

     iteration # 72     ecut=    60.00 Ry     beta= 0.70
     Davidson diagonalization with overlap
     c_bands:  1 eigenvalues not converged
     ethr =  9.07E-06,  avg # of iterations = 11.5

     negative rho (up, down):  1.158E-02 3.654E-03

     total cpu time spent up to now is      309.4 secs

     total energy              =    -641.09572894 Ry
     estimated scf accuracy    <    1604.95780733 Ry

     total magnetization       =    -0.10 Bohr mag/cell
     absolute magnetization    =    79.16 Bohr mag/cell

     iteration # 73     ecut=    60.00 Ry     beta= 0.70
     Davidson diagonalization with overlap
     ethr =  9.07E-06,  avg # of iterations = 10.6

     negative rho (up, down):  2.826E-02 9.622E-02

     total cpu time spent up to now is      317.3 secs

     total energy              =    -683.39632529 Ry
     estimated scf accuracy    <     414.23647303 Ry

     total magnetization       =     0.08 Bohr mag/cell
     absolute magnetization    =    40.08 Bohr mag/cell

     iteration # 74     ecut=    60.00 Ry     beta= 0.70
     Davidson diagonalization with overlap
     ethr =  9.07E-06,  avg # of iterations =  9.5

     negative rho (up, down):  1.559E-01 1.992E-01

     total cpu time spent up to now is      324.4 secs

     total energy              =    -696.73278372 Ry
     estimated scf accuracy    <     789.26575157 Ry

     total magnetization       =     0.39 Bohr mag/cell
     absolute magnetization    =    51.60 Bohr mag/cell

     iteration # 75     ecut=    60.00 Ry     beta= 0.70
     Davidson diagonalization with overlap
     c_bands:  1 eigenvalues not converged
     ethr =  9.07E-06,  avg # of iterations = 10.5

     negative rho (up, down):  2.616E-01 5.960E-02

     total cpu time spent up to now is      332.5 secs

     total energy              =    -711.92338297 Ry
     estimated scf accuracy    <    1555.55971131 Ry

     total magnetization       =     0.01 Bohr mag/cell
     absolute magnetization    =    63.24 Bohr mag/cell

     iteration # 76     ecut=    60.00 Ry     beta= 0.70
     Davidson diagonalization with overlap
     ethr =  9.07E-06,  avg # of iterations =  9.4

     negative rho (up, down):  7.504E-01 4.428E-01

     total cpu time spent up to now is      339.8 secs

     total energy              =    -683.28205909 Ry
     estimated scf accuracy    <    1633.93973598 Ry

     total magnetization       =    -0.07 Bohr mag/cell
     absolute magnetization    =    73.96 Bohr mag/cell

     iteration # 77     ecut=    60.00 Ry     beta= 0.70
     Davidson diagonalization with overlap
     c_bands:  1 eigenvalues not converged
     c_bands:  1 eigenvalues not converged
     c_bands:  1 eigenvalues not converged
     c_bands:  1 eigenvalues not converged
     ethr =  9.07E-06,  avg # of iterations = 14.1

     negative rho (up, down):  6.426E-01 7.208E-01

     total cpu time spent up to now is      350.1 secs

     total energy              =    -784.86987550 Ry
     estimated scf accuracy    <    2618.00161425 Ry

     total magnetization       =    -0.12 Bohr mag/cell
     absolute magnetization    =    77.03 Bohr mag/cell

     iteration # 78     ecut=    60.00 Ry     beta= 0.70
     Davidson diagonalization with overlap
     c_bands:  1 eigenvalues not converged
     c_bands:  1 eigenvalues not converged
     ethr =  9.07E-06,  avg # of iterations = 12.8

     negative rho (up, down):  5.872E-01 2.446E-01

     total cpu time spent up to now is      360.2 secs

     total energy              =    -710.02736733 Ry
     estimated scf accuracy    <    2922.54578802 Ry

     total magnetization       =    -0.17 Bohr mag/cell
     absolute magnetization    =    64.77 Bohr mag/cell

     iteration # 79     ecut=    60.00 Ry     beta= 0.70
     Davidson diagonalization with overlap
     c_bands:  1 eigenvalues not converged
     c_bands:  1 eigenvalues not converged
     ethr =  9.07E-06,  avg # of iterations = 13.2

     negative rho (up, down):  1.589E+00 7.866E-01

     total cpu time spent up to now is      370.1 secs

     total energy              =    -675.04153868 Ry
     estimated scf accuracy    <    2327.94926304 Ry

     total magnetization       =    -0.17 Bohr mag/cell
     absolute magnetization    =    70.35 Bohr mag/cell

     iteration # 80     ecut=    60.00 Ry     beta= 0.70
     Davidson diagonalization with overlap
     c_bands:  1 eigenvalues not converged
     c_bands:  1 eigenvalues not converged
     c_bands:  1 eigenvalues not converged
     c_bands:  1 eigenvalues not converged
     c_bands:  1 eigenvalues not converged
     c_bands:  1 eigenvalues not converged
     ethr =  9.07E-06,  avg # of iterations = 14.9

     negative rho (up, down):  1.395E+00 1.601E+00

     total cpu time spent up to now is      382.0 secs

     total energy              =    -897.43647158 Ry
     estimated scf accuracy    <    2636.82207011 Ry

     total magnetization       =    -0.46 Bohr mag/cell
     absolute magnetization    =    99.12 Bohr mag/cell

     iteration # 81     ecut=    60.00 Ry     beta= 0.70
     Davidson diagonalization with overlap
     c_bands:  1 eigenvalues not converged
     c_bands:  1 eigenvalues not converged
     c_bands:  1 eigenvalues not converged
     c_bands:  1 eigenvalues not converged
     c_bands:  1 eigenvalues not converged
     c_bands:  1 eigenvalues not converged
     c_bands:  1 eigenvalues not converged
     c_bands:  1 eigenvalues not converged
     c_bands:  1 eigenvalues not converged
     c_bands:  1 eigenvalues not converged
     c_bands:  1 eigenvalues not converged
     c_bands:  1 eigenvalues not converged
     c_bands:  1 eigenvalues not converged
     c_bands:  1 eigenvalues not converged
     c_bands:  1 eigenvalues not converged
     c_bands:  1 eigenvalues not converged
     ethr =  9.07E-06,  avg # of iterations = 15.8

     negative rho (up, down):  5.151E-01 4.159E-01

     total cpu time spent up to now is      393.2 secs

     total energy              =    -618.14646413 Ry
     estimated scf accuracy    <    3583.91624684 Ry

     total magnetization       =    -0.36 Bohr mag/cell
     absolute magnetization    =    76.78 Bohr mag/cell

     iteration # 82     ecut=    60.00 Ry     beta= 0.70
     Davidson diagonalization with overlap
     c_bands:  1 eigenvalues not converged
     c_bands:  1 eigenvalues not converged
     c_bands:  1 eigenvalues not converged
     c_bands:  1 eigenvalues not converged
     c_bands:  1 eigenvalues not converged
     c_bands:  1 eigenvalues not converged
     c_bands:  1 eigenvalues not converged
     c_bands:  1 eigenvalues not converged
     c_bands:  1 eigenvalues not converged
     c_bands:  1 eigenvalues not converged
     c_bands:  1 eigenvalues not converged
     c_bands:  1 eigenvalues not converged
     c_bands:  1 eigenvalues not converged
     c_bands:  1 eigenvalues not converged
     c_bands:  1 eigenvalues not converged
     c_bands:  1 eigenvalues not converged
     c_bands:  1 eigenvalues not converged
     c_bands:  1 eigenvalues not converged
     c_bands:  1 eigenvalues not converged
     c_bands:  1 eigenvalues not converged
     ethr =  9.07E-06,  avg # of iterations = 15.0

     negative rho (up, down):  3.375E+00 1.847E+00

     total cpu time spent up to now is      404.8 secs

     total energy              =    -653.35138513 Ry
     estimated scf accuracy    <    2476.26178768 Ry

     total magnetization       =    -0.28 Bohr mag/cell
     absolute magnetization    =    80.35 Bohr mag/cell

     iteration # 83     ecut=    60.00 Ry     beta= 0.70
     Davidson diagonalization with overlap
     c_bands:  1 eigenvalues not converged
     c_bands:  1 eigenvalues not converged
     c_bands:  1 eigenvalues not converged
     c_bands:  2 eigenvalues not converged
     c_bands:  1 eigenvalues not converged
     c_bands:  1 eigenvalues not converged
     c_bands:  1 eigenvalues not converged
     c_bands:  1 eigenvalues not converged
     c_bands:  1 eigenvalues not converged
     c_bands:  1 eigenvalues not converged
     c_bands:  1 eigenvalues not converged
     c_bands:  2 eigenvalues not converged
     c_bands:  2 eigenvalues not converged
     c_bands:  1 eigenvalues not converged
     c_bands:  1 eigenvalues not converged
     c_bands:  2 eigenvalues not converged
     c_bands:  1 eigenvalues not converged
     c_bands:  1 eigenvalues not converged
     c_bands:  2 eigenvalues not converged
     c_bands:  1 eigenvalues not converged
     c_bands:  1 eigenvalues not converged
     c_bands:  2 eigenvalues not converged
     c_bands:  1 eigenvalues not converged
     c_bands:  2 eigenvalues not converged
     c_bands:  1 eigenvalues not converged
     c_bands:  1 eigenvalues not converged
     c_bands:  2 eigenvalues not converged
     c_bands:  1 eigenvalues not converged
     c_bands:  1 eigenvalues not converged
     c_bands:  2 eigenvalues not converged
     c_bands:  1 eigenvalues not converged
     c_bands:  1 eigenvalues not converged
     c_bands:  1 eigenvalues not converged
     c_bands:  1 eigenvalues not converged
     c_bands:  1 eigenvalues not converged
     c_bands:  2 eigenvalues not converged
     c_bands:  2 eigenvalues not converged
     c_bands:  1 eigenvalues not converged
     c_bands:  1 eigenvalues not converged
     c_bands:  1 eigenvalues not converged
     c_bands:  1 eigenvalues not converged
     c_bands:  1 eigenvalues not converged
     c_bands:  1 eigenvalues not converged
     c_bands:  1 eigenvalues not converged
     c_bands:  1 eigenvalues not converged
     c_bands:  1 eigenvalues not converged
     c_bands:  1 eigenvalues not converged
     c_bands:  1 eigenvalues not converged
     c_bands:  1 eigenvalues not converged
     c_bands:  1 eigenvalues not converged
     c_bands:  1 eigenvalues not converged
     c_bands:  1 eigenvalues not converged
     c_bands:  1 eigenvalues not converged
     c_bands:  1 eigenvalues not converged
     c_bands:  1 eigenvalues not converged
     c_bands:  1 eigenvalues not converged
     c_bands:  1 eigenvalues not converged
     c_bands:  1 eigenvalues not converged
     c_bands:  1 eigenvalues not converged
     c_bands:  1 eigenvalues not converged
     c_bands:  1 eigenvalues not converged
     c_bands:  1 eigenvalues not converged
     c_bands:  2 eigenvalues not converged
     c_bands:  2 eigenvalues not converged
     c_bands:  1 eigenvalues not converged
     c_bands:  1 eigenvalues not converged
     c_bands:  1 eigenvalues not converged
     c_bands:  2 eigenvalues not converged
     c_bands:  2 eigenvalues not converged
     c_bands:  1 eigenvalues not converged
     c_bands:  2 eigenvalues not converged
     c_bands:  1 eigenvalues not converged
     c_bands:  1 eigenvalues not converged
     c_bands:  1 eigenvalues not converged
     c_bands:  1 eigenvalues not converged
     c_bands:  1 eigenvalues not converged
     c_bands:  1 eigenvalues not converged
     c_bands:  2 eigenvalues not converged
     c_bands:  1 eigenvalues not converged
     c_bands:  1 eigenvalues not converged
     c_bands:  1 eigenvalues not converged
     c_bands:  2 eigenvalues not converged
     c_bands:  1 eigenvalues not converged
     c_bands:  2 eigenvalues not converged
     c_bands:  1 eigenvalues not converged
     c_bands:  1 eigenvalues not converged
     c_bands:  1 eigenvalues not converged
     c_bands:  1 eigenvalues not converged
     c_bands:  1 eigenvalues not converged
     ethr =  9.07E-06,  avg # of iterations = 18.9

     negative rho (up, down):  3.192E+00 2.283E+00

     total cpu time spent up to now is      419.1 secs

     total energy              =    -736.29286116 Ry
     estimated scf accuracy    <    3518.38420554 Ry

     total magnetization       =    -0.03 Bohr mag/cell
     absolute magnetization    =    71.80 Bohr mag/cell

     iteration # 84     ecut=    60.00 Ry     beta= 0.70
     Davidson diagonalization with overlap
     c_bands:  2 eigenvalues not converged
     c_bands:  1 eigenvalues not converged
     c_bands:  1 eigenvalues not converged
     c_bands:  1 eigenvalues not converged
     c_bands:  1 eigenvalues not converged
     c_bands:  1 eigenvalues not converged
     c_bands:  1 eigenvalues not converged
     c_bands:  1 eigenvalues not converged
     c_bands:  1 eigenvalues not converged
     c_bands:  1 eigenvalues not converged
     c_bands:  1 eigenvalues not converged
     c_bands:  1 eigenvalues not converged
     c_bands:  1 eigenvalues not converged
     c_bands:  1 eigenvalues not converged
     c_bands:  1 eigenvalues not converged
     c_bands:  1 eigenvalues not converged
     c_bands:  1 eigenvalues not converged
     c_bands:  1 eigenvalues not converged
     c_bands:  1 eigenvalues not converged
     c_bands:  1 eigenvalues not converged
     c_bands:  1 eigenvalues not converged
     c_bands:  1 eigenvalues not converged
     c_bands:  1 eigenvalues not converged
     c_bands:  1 eigenvalues not converged
     c_bands:  1 eigenvalues not converged
     c_bands:  1 eigenvalues not converged
     c_bands:  1 eigenvalues not converged
     c_bands:  1 eigenvalues not converged
     c_bands:  1 eigenvalues not converged
     c_bands:  1 eigenvalues not converged
     c_bands:  1 eigenvalues not converged
     ethr =  9.07E-06,  avg # of iterations = 16.2

     negative rho (up, down):  1.175E+00 4.504E-01

     total cpu time spent up to now is      431.1 secs

     total energy              =    -741.70342594 Ry
     estimated scf accuracy    <    2745.06985911 Ry

     total magnetization       =    -0.03 Bohr mag/cell
     absolute magnetization    =   112.16 Bohr mag/cell

     iteration # 85     ecut=    60.00 Ry     beta= 0.70
     Davidson diagonalization with overlap
     c_bands:  1 eigenvalues not converged
     c_bands:  1 eigenvalues not converged
     c_bands:  1 eigenvalues not converged
     c_bands:  2 eigenvalues not converged
     c_bands:  1 eigenvalues not converged
     c_bands:  1 eigenvalues not converged
     c_bands:  2 eigenvalues not converged
     c_bands:  1 eigenvalues not converged
     c_bands:  1 eigenvalues not converged
     c_bands:  1 eigenvalues not converged
     c_bands:  1 eigenvalues not converged
     c_bands:  1 eigenvalues not converged
     c_bands:  1 eigenvalues not converged
     c_bands:  1 eigenvalues not converged
     c_bands:  1 eigenvalues not converged
     c_bands:  1 eigenvalues not converged
     c_bands:  1 eigenvalues not converged
     c_bands:  1 eigenvalues not converged
     c_bands:  1 eigenvalues not converged
     c_bands:  1 eigenvalues not converged
     c_bands:  1 eigenvalues not converged
     c_bands:  1 eigenvalues not converged
     c_bands:  1 eigenvalues not converged
     c_bands:  1 eigenvalues not converged
     c_bands:  1 eigenvalues not converged
     c_bands:  1 eigenvalues not converged
     c_bands:  1 eigenvalues not converged
     c_bands:  1 eigenvalues not converged
     c_bands:  1 eigenvalues not converged
     c_bands:  1 eigenvalues not converged
     c_bands:  1 eigenvalues not converged
     c_bands:  1 eigenvalues not converged
     c_bands:  1 eigenvalues not converged
     c_bands:  1 eigenvalues not converged
     c_bands:  1 eigenvalues not converged
     c_bands:  1 eigenvalues not converged
     c_bands:  1 eigenvalues not converged
     c_bands:  1 eigenvalues not converged
     ethr =  9.07E-06,  avg # of iterations = 17.6

     negative rho (up, down):  3.730E-01 5.557E-01

     total cpu time spent up to now is      444.5 secs

     total energy              =    -642.68325648 Ry
     estimated scf accuracy    <    3132.97876549 Ry

     total magnetization       =    -0.18 Bohr mag/cell
     absolute magnetization    =    66.35 Bohr mag/cell

     iteration # 86     ecut=    60.00 Ry     beta= 0.70
     Davidson diagonalization with overlap
     c_bands:  1 eigenvalues not converged
     c_bands:  1 eigenvalues not converged
     c_bands:  1 eigenvalues not converged
     c_bands:  1 eigenvalues not converged
     c_bands:  1 eigenvalues not converged
     c_bands:  1 eigenvalues not converged
     c_bands:  1 eigenvalues not converged
     c_bands:  1 eigenvalues not converged
     c_bands:  1 eigenvalues not converged
     c_bands:  1 eigenvalues not converged
     c_bands:  1 eigenvalues not converged
     c_bands:  1 eigenvalues not converged
     c_bands:  1 eigenvalues not converged
     c_bands:  1 eigenvalues not converged
     c_bands:  1 eigenvalues not converged
     c_bands:  1 eigenvalues not converged
     c_bands:  1 eigenvalues not converged
     c_bands:  1 eigenvalues not converged
     c_bands:  1 eigenvalues not converged
     c_bands:  1 eigenvalues not converged
     c_bands:  1 eigenvalues not converged
     c_bands:  1 eigenvalues not converged
     c_bands:  1 eigenvalues not converged
     c_bands:  1 eigenvalues not converged
     ethr =  9.07E-06,  avg # of iterations = 15.8

     negative rho (up, down):  3.620E+00 1.689E+00

     total cpu time spent up to now is      456.5 secs

     total energy              =    -664.02383742 Ry
     estimated scf accuracy    <    2598.18901472 Ry

     total magnetization       =    -0.09 Bohr mag/cell
     absolute magnetization    =   104.14 Bohr mag/cell

     iteration # 87     ecut=    60.00 Ry     beta= 0.70
     Davidson diagonalization with overlap
     c_bands:  1 eigenvalues not converged
     c_bands:  1 eigenvalues not converged
     c_bands:  1 eigenvalues not converged
     c_bands:  1 eigenvalues not converged
     c_bands:  1 eigenvalues not converged
     c_bands:  1 eigenvalues not converged
     c_bands:  1 eigenvalues not converged
     c_bands:  1 eigenvalues not converged
     c_bands:  1 eigenvalues not converged
     c_bands:  1 eigenvalues not converged
     c_bands:  1 eigenvalues not converged
     c_bands:  1 eigenvalues not converged
     c_bands:  1 eigenvalues not converged
     c_bands:  1 eigenvalues not converged
     c_bands:  1 eigenvalues not converged
     c_bands:  1 eigenvalues not converged
     c_bands:  1 eigenvalues not converged
     c_bands:  1 eigenvalues not converged
     c_bands:  1 eigenvalues not converged
     c_bands:  1 eigenvalues not converged
     c_bands:  1 eigenvalues not converged
     c_bands:  1 eigenvalues not converged
     c_bands:  2 eigenvalues not converged
     c_bands:  2 eigenvalues not converged
     c_bands:  1 eigenvalues not converged
     c_bands:  1 eigenvalues not converged
     c_bands:  1 eigenvalues not converged
     c_bands:  1 eigenvalues not converged
     c_bands:  1 eigenvalues not converged
     c_bands:  2 eigenvalues not converged
     c_bands:  1 eigenvalues not converged
     c_bands:  2 eigenvalues not converged
     c_bands:  1 eigenvalues not converged
     c_bands:  1 eigenvalues not converged
     c_bands:  1 eigenvalues not converged
     c_bands:  1 eigenvalues not converged
     c_bands:  1 eigenvalues not converged
     c_bands:  1 eigenvalues not converged
     c_bands:  1 eigenvalues not converged
     c_bands:  1 eigenvalues not converged
     c_bands:  1 eigenvalues not converged
     c_bands:  1 eigenvalues not converged
     c_bands:  1 eigenvalues not converged
     c_bands:  1 eigenvalues not converged
     ethr =  9.07E-06,  avg # of iterations = 18.5

     negative rho (up, down):  3.387E+00 2.868E+00

     total cpu time spent up to now is      472.3 secs

     total energy              =    -763.13169041 Ry
     estimated scf accuracy    <    2913.16967000 Ry

     total magnetization       =    -0.25 Bohr mag/cell
     absolute magnetization    =    78.65 Bohr mag/cell

     iteration # 88     ecut=    60.00 Ry     beta= 0.70
     Davidson diagonalization with overlap
     c_bands:  1 eigenvalues not converged
     c_bands:  1 eigenvalues not converged
     c_bands:  1 eigenvalues not converged
     c_bands:  1 eigenvalues not converged
     c_bands:  1 eigenvalues not converged
     c_bands:  1 eigenvalues not converged
     c_bands:  1 eigenvalues not converged
     c_bands:  1 eigenvalues not converged
     c_bands:  1 eigenvalues not converged
     c_bands:  1 eigenvalues not converged
     c_bands:  1 eigenvalues not converged
     c_bands:  1 eigenvalues not converged
     c_bands:  1 eigenvalues not converged
     c_bands:  1 eigenvalues not converged
     c_bands:  1 eigenvalues not converged
     c_bands:  1 eigenvalues not converged
     c_bands:  1 eigenvalues not converged
     c_bands:  2 eigenvalues not converged
     c_bands:  1 eigenvalues not converged
     c_bands:  1 eigenvalues not converged
     c_bands:  3 eigenvalues not converged
     c_bands:  4 eigenvalues not converged
     c_bands:  1 eigenvalues not converged
     c_bands:  1 eigenvalues not converged
     c_bands:  1 eigenvalues not converged
     c_bands:  1 eigenvalues not converged
     c_bands:  1 eigenvalues not converged
     c_bands:  1 eigenvalues not converged
     c_bands:  1 eigenvalues not converged
     c_bands:  4 eigenvalues not converged
     c_bands:  5 eigenvalues not converged
     c_bands:  1 eigenvalues not converged
     c_bands:  1 eigenvalues not converged
     c_bands:  2 eigenvalues not converged
     c_bands:  1 eigenvalues not converged
     c_bands:  1 eigenvalues not converged
     c_bands:  1 eigenvalues not converged
     c_bands:  1 eigenvalues not converged
     c_bands:  1 eigenvalues not converged
     c_bands:  1 eigenvalues not converged
     c_bands:  1 eigenvalues not converged
     c_bands:  2 eigenvalues not converged
     c_bands:  1 eigenvalues not converged
     c_bands:  1 eigenvalues not converged
     c_bands:  3 eigenvalues not converged
     c_bands:  3 eigenvalues not converged
     c_bands:  5 eigenvalues not converged
     c_bands:  1 eigenvalues not converged
     c_bands:  3 eigenvalues not converged
     c_bands:  1 eigenvalues not converged
     c_bands:  2 eigenvalues not converged
     c_bands:  4 eigenvalues not converged
     c_bands:  1 eigenvalues not converged
     c_bands:  1 eigenvalues not converged
     c_bands:  1 eigenvalues not converged
     c_bands:  1 eigenvalues not converged
     c_bands:  1 eigenvalues not converged
     c_bands:  1 eigenvalues not converged
     c_bands:  1 eigenvalues not converged
     c_bands:  1 eigenvalues not converged
     c_bands:  1 eigenvalues not converged
     c_bands:  1 eigenvalues not converged
     c_bands:  1 eigenvalues not converged
     c_bands:  1 eigenvalues not converged
     c_bands:  1 eigenvalues not converged
     c_bands:  2 eigenvalues not converged
     c_bands:  1 eigenvalues not converged
     c_bands:  5 eigenvalues not converged
     c_bands:  1 eigenvalues not converged
     c_bands:  1 eigenvalues not converged
     c_bands:  1 eigenvalues not converged
     c_bands:  5 eigenvalues not converged
     c_bands:  1 eigenvalues not converged
     c_bands:  1 eigenvalues not converged
     c_bands:  1 eigenvalues not converged
     c_bands:  1 eigenvalues not converged
     c_bands:  1 eigenvalues not converged
     c_bands:  2 eigenvalues not converged
     c_bands:  1 eigenvalues not converged
     c_bands:  1 eigenvalues not converged
     c_bands:  2 eigenvalues not converged
     c_bands:  1 eigenvalues not converged
     c_bands:  1 eigenvalues not converged
     c_bands:  1 eigenvalues not converged
     c_bands:  1 eigenvalues not converged
     c_bands:  1 eigenvalues not converged
     c_bands:  3 eigenvalues not converged
     c_bands:  1 eigenvalues not converged
     c_bands:  1 eigenvalues not converged
     ethr =  9.07E-06,  avg # of iterations = 18.6

     negative rho (up, down):  4.100E+00 6.825E+00

     total cpu time spent up to now is      487.1 secs

     total energy              =    -598.97746530 Ry
     estimated scf accuracy    <    3562.42087823 Ry

     total magnetization       =    -0.16 Bohr mag/cell
     absolute magnetization    =    81.30 Bohr mag/cell

     iteration # 89     ecut=    60.00 Ry     beta= 0.70
     Davidson diagonalization with overlap
     c_bands:  2 eigenvalues not converged
     c_bands:  3 eigenvalues not converged
     c_bands:  4 eigenvalues not converged
     c_bands:  1 eigenvalues not converged
     c_bands:  1 eigenvalues not converged
     c_bands:  1 eigenvalues not converged
     c_bands:  1 eigenvalues not converged
     c_bands:  1 eigenvalues not converged
     c_bands:  3 eigenvalues not converged
     c_bands:  2 eigenvalues not converged
     c_bands:  1 eigenvalues not converged
     c_bands:  2 eigenvalues not converged
     c_bands:  1 eigenvalues not converged
     c_bands:  2 eigenvalues not converged
     c_bands:  1 eigenvalues not converged
     c_bands:  3 eigenvalues not converged
     c_bands:  3 eigenvalues not converged
     c_bands:  1 eigenvalues not converged
     c_bands:  2 eigenvalues not converged
     c_bands:  1 eigenvalues not converged
     c_bands:  2 eigenvalues not converged
     c_bands:  1 eigenvalues not converged
     c_bands:  4 eigenvalues not converged
     c_bands:  2 eigenvalues not converged
     c_bands:  3 eigenvalues not converged
     c_bands:  2 eigenvalues not converged
     c_bands:  2 eigenvalues not converged
     c_bands:  2 eigenvalues not converged
     c_bands:  3 eigenvalues not converged
     c_bands:  3 eigenvalues not converged
     c_bands:  1 eigenvalues not converged
     c_bands:  2 eigenvalues not converged
     c_bands:  3 eigenvalues not converged
     c_bands:  3 eigenvalues not converged
     c_bands:  1 eigenvalues not converged
     c_bands:  1 eigenvalues not converged
     c_bands:  2 eigenvalues not converged
     c_bands:  1 eigenvalues not converged
     c_bands:  1 eigenvalues not converged
     c_bands:  3 eigenvalues not converged
     c_bands:  2 eigenvalues not converged
     c_bands:  2 eigenvalues not converged
     c_bands:  4 eigenvalues not converged
     c_bands:  5 eigenvalues not converged
     c_bands:  1 eigenvalues not converged
     c_bands:  2 eigenvalues not converged
     c_bands:  2 eigenvalues not converged
     c_bands:  2 eigenvalues not converged
     c_bands:  5 eigenvalues not converged
     c_bands:  1 eigenvalues not converged
     c_bands:  1 eigenvalues not converged
     c_bands:  1 eigenvalues not converged
     c_bands:  1 eigenvalues not converged
     c_bands:  2 eigenvalues not converged
     c_bands:  3 eigenvalues not converged
     c_bands:  3 eigenvalues not converged
     c_bands:  2 eigenvalues not converged
     c_bands:  4 eigenvalues not converged
     c_bands:  3 eigenvalues not converged
     c_bands:  1 eigenvalues not converged
     c_bands:  4 eigenvalues not converged
     c_bands:  3 eigenvalues not converged
     c_bands:  1 eigenvalues not converged
     c_bands:  1 eigenvalues not converged
     c_bands:  2 eigenvalues not converged
     c_bands:  4 eigenvalues not converged
     c_bands:  2 eigenvalues not converged
     c_bands:  2 eigenvalues not converged
     c_bands:  1 eigenvalues not converged
     c_bands:  2 eigenvalues not converged
     c_bands:  1 eigenvalues not converged
     c_bands:  3 eigenvalues not converged
     c_bands:  2 eigenvalues not converged
     c_bands:  4 eigenvalues not converged
     c_bands:  1 eigenvalues not converged
     c_bands:  1 eigenvalues not converged
     c_bands:  1 eigenvalues not converged
     c_bands:  3 eigenvalues not converged
     c_bands:  1 eigenvalues not converged
     c_bands:  2 eigenvalues not converged
     c_bands:  3 eigenvalues not converged
     c_bands:  3 eigenvalues not converged
     c_bands:  4 eigenvalues not converged
     c_bands:  1 eigenvalues not converged
     c_bands:  1 eigenvalues not converged
     c_bands:  1 eigenvalues not converged
     c_bands:  3 eigenvalues not converged
     c_bands:  1 eigenvalues not converged
     c_bands:  1 eigenvalues not converged
     c_bands:  1 eigenvalues not converged
     c_bands:  2 eigenvalues not converged
     c_bands:  3 eigenvalues not converged
     c_bands:  1 eigenvalues not converged
     c_bands:  1 eigenvalues not converged
     c_bands:  3 eigenvalues not converged
     c_bands:  3 eigenvalues not converged
     c_bands:  4 eigenvalues not converged
     c_bands:  4 eigenvalues not converged
     c_bands:  1 eigenvalues not converged
     c_bands:  3 eigenvalues not converged
     c_bands:  4 eigenvalues not converged
     c_bands:  2 eigenvalues not converged
     c_bands:  4 eigenvalues not converged
     c_bands:  2 eigenvalues not converged
     c_bands:  1 eigenvalues not converged
     c_bands:  3 eigenvalues not converged
     c_bands:  2 eigenvalues not converged
     c_bands:  2 eigenvalues not converged
     c_bands:  1 eigenvalues not converged
     c_bands:  3 eigenvalues not converged
     c_bands:  3 eigenvalues not converged
     c_bands:  2 eigenvalues not converged
     c_bands:  2 eigenvalues not converged
     c_bands:  1 eigenvalues not converged
     c_bands:  2 eigenvalues not converged
     c_bands:  2 eigenvalues not converged
     c_bands:  1 eigenvalues not converged
     c_bands:  2 eigenvalues not converged
     c_bands:  2 eigenvalues not converged
     c_bands:  2 eigenvalues not converged
     c_bands:  1 eigenvalues not converged
     c_bands:  2 eigenvalues not converged
     c_bands:  1 eigenvalues not converged
     c_bands:  2 eigenvalues not converged
     c_bands:  1 eigenvalues not converged
     c_bands:  2 eigenvalues not converged
     c_bands:  3 eigenvalues not converged
     c_bands:  1 eigenvalues not converged
     c_bands:  4 eigenvalues not converged
     c_bands:  1 eigenvalues not converged
     c_bands:  2 eigenvalues not converged
     c_bands:  1 eigenvalues not converged
     c_bands:  1 eigenvalues not converged
     c_bands:  4 eigenvalues not converged
     c_bands:  1 eigenvalues not converged
     c_bands:  2 eigenvalues not converged
     c_bands:  3 eigenvalues not converged
     c_bands:  2 eigenvalues not converged
     c_bands:  4 eigenvalues not converged
     c_bands:  1 eigenvalues not converged
     c_bands:  1 eigenvalues not converged
     c_bands:  3 eigenvalues not converged
     c_bands:  3 eigenvalues not converged
     c_bands:  2 eigenvalues not converged
     c_bands:  2 eigenvalues not converged
     c_bands:  2 eigenvalues not converged
     c_bands:  3 eigenvalues not converged
     c_bands:  2 eigenvalues not converged
     c_bands:  1 eigenvalues not converged
     c_bands:  3 eigenvalues not converged
     c_bands:  1 eigenvalues not converged
     c_bands:  1 eigenvalues not converged
     ethr =  9.07E-06,  avg # of iterations = 20.1

     negative rho (up, down):  9.441E+00 5.157E+00

     total cpu time spent up to now is      504.1 secs

     total energy              =    -414.09276955 Ry
     estimated scf accuracy    <    3376.41580075 Ry

     total magnetization       =     0.08 Bohr mag/cell
     absolute magnetization    =    73.92 Bohr mag/cell

     iteration # 90     ecut=    60.00 Ry     beta= 0.70
     Davidson diagonalization with overlap
     c_bands:  1 eigenvalues not converged
     c_bands:  1 eigenvalues not converged
     c_bands:  1 eigenvalues not converged
     c_bands:  1 eigenvalues not converged
     c_bands:  1 eigenvalues not converged
     c_bands:  1 eigenvalues not converged
     c_bands:  1 eigenvalues not converged
     c_bands:  1 eigenvalues not converged
     c_bands:  2 eigenvalues not converged
     c_bands:  1 eigenvalues not converged
     c_bands:  1 eigenvalues not converged
     c_bands:  1 eigenvalues not converged
     c_bands:  1 eigenvalues not converged
     c_bands:  1 eigenvalues not converged
     c_bands:  1 eigenvalues not converged
     c_bands:  1 eigenvalues not converged
     c_bands:  1 eigenvalues not converged
     c_bands:  1 eigenvalues not converged
     c_bands:  1 eigenvalues not converged
     c_bands:  1 eigenvalues not converged
     c_bands:  1 eigenvalues not converged
     ethr =  9.07E-06,  avg # of iterations = 18.0

     negative rho (up, down):  5.608E+00 7.758E+00

     total cpu time spent up to now is      520.1 secs

     total energy              =    -484.76998974 Ry
     estimated scf accuracy    <    2615.87367502 Ry

     total magnetization       =     0.06 Bohr mag/cell
     absolute magnetization    =    48.94 Bohr mag/cell

     iteration # 91     ecut=    60.00 Ry     beta= 0.70
     Davidson diagonalization with overlap
     c_bands:  1 eigenvalues not converged
     c_bands:  1 eigenvalues not converged
     c_bands:  1 eigenvalues not converged
     c_bands:  1 eigenvalues not converged
     c_bands:  2 eigenvalues not converged
     c_bands:  1 eigenvalues not converged
     c_bands:  2 eigenvalues not converged
     c_bands:  1 eigenvalues not converged
     c_bands:  2 eigenvalues not converged
     c_bands:  2 eigenvalues not converged
     c_bands:  1 eigenvalues not converged
     c_bands:  2 eigenvalues not converged
     c_bands:  1 eigenvalues not converged
     c_bands:  1 eigenvalues not converged
     c_bands:  1 eigenvalues not converged
     c_bands:  4 eigenvalues not converged
     c_bands:  2 eigenvalues not converged
     c_bands:  1 eigenvalues not converged
     c_bands:  2 eigenvalues not converged
     c_bands:  1 eigenvalues not converged
     c_bands:  2 eigenvalues not converged
     c_bands:  1 eigenvalues not converged
     c_bands:  1 eigenvalues not converged
     c_bands:  2 eigenvalues not converged
     c_bands:  1 eigenvalues not converged
     c_bands:  1 eigenvalues not converged
     c_bands:  1 eigenvalues not converged
     c_bands:  2 eigenvalues not converged
     c_bands:  1 eigenvalues not converged
     c_bands:  1 eigenvalues not converged
     c_bands:  1 eigenvalues not converged
     c_bands:  1 eigenvalues not converged
     c_bands:  1 eigenvalues not converged
     c_bands:  1 eigenvalues not converged
     c_bands:  1 eigenvalues not converged
     c_bands:  2 eigenvalues not converged
     c_bands:  2 eigenvalues not converged
     c_bands:  1 eigenvalues not converged
     c_bands:  2 eigenvalues not converged
     c_bands:  3 eigenvalues not converged
     c_bands:  1 eigenvalues not converged
     c_bands:  3 eigenvalues not converged
     c_bands:  3 eigenvalues not converged
     c_bands:  2 eigenvalues not converged
     c_bands:  1 eigenvalues not converged
     c_bands:  4 eigenvalues not converged
     c_bands:  2 eigenvalues not converged
     c_bands:  2 eigenvalues not converged
     c_bands:  3 eigenvalues not converged
     c_bands:  1 eigenvalues not converged
     c_bands:  1 eigenvalues not converged
     c_bands:  1 eigenvalues not converged
     c_bands:  1 eigenvalues not converged
     c_bands:  1 eigenvalues not converged
     c_bands:  2 eigenvalues not converged
     c_bands:  1 eigenvalues not converged
     c_bands:  1 eigenvalues not converged
     c_bands:  1 eigenvalues not converged
     c_bands:  1 eigenvalues not converged
     c_bands:  1 eigenvalues not converged
     c_bands:  2 eigenvalues not converged
     c_bands:  2 eigenvalues not converged
     c_bands:  1 eigenvalues not converged
     c_bands:  1 eigenvalues not converged
     c_bands:  1 eigenvalues not converged
     c_bands:  1 eigenvalues not converged
     c_bands:  1 eigenvalues not converged
     c_bands:  2 eigenvalues not converged
     c_bands:  2 eigenvalues not converged
     c_bands:  1 eigenvalues not converged
     c_bands:  1 eigenvalues not converged
     c_bands:  1 eigenvalues not converged
     c_bands:  2 eigenvalues not converged
     c_bands:  1 eigenvalues not converged
     c_bands:  1 eigenvalues not converged
     c_bands:  1 eigenvalues not converged
     c_bands:  1 eigenvalues not converged
     c_bands:  1 eigenvalues not converged
     c_bands:  1 eigenvalues not converged
     c_bands:  1 eigenvalues not converged
     c_bands:  2 eigenvalues not converged
     c_bands:  1 eigenvalues not converged
     c_bands:  1 eigenvalues not converged
     c_bands:  1 eigenvalues not converged
     c_bands:  1 eigenvalues not converged
     c_bands:  1 eigenvalues not converged
     c_bands:  2 eigenvalues not converged
     c_bands:  3 eigenvalues not converged
     c_bands:  1 eigenvalues not converged
     c_bands:  1 eigenvalues not converged
     c_bands:  1 eigenvalues not converged
     c_bands:  1 eigenvalues not converged
     c_bands:  2 eigenvalues not converged
     c_bands:  2 eigenvalues not converged
     c_bands:  2 eigenvalues not converged
     c_bands:  2 eigenvalues not converged
     c_bands:  2 eigenvalues not converged
     c_bands:  2 eigenvalues not converged
     c_bands:  1 eigenvalues not converged
     c_bands:  2 eigenvalues not converged
     c_bands:  1 eigenvalues not converged
     c_bands:  2 eigenvalues not converged
     c_bands:  1 eigenvalues not converged
     c_bands:  1 eigenvalues not converged
     c_bands:  1 eigenvalues not converged
     c_bands:  2 eigenvalues not converged
     c_bands:  1 eigenvalues not converged
     c_bands:  1 eigenvalues not converged
     c_bands:  1 eigenvalues not converged
     c_bands:  1 eigenvalues not converged
     c_bands:  1 eigenvalues not converged
     c_bands:  1 eigenvalues not converged
     c_bands:  1 eigenvalues not converged
     c_bands:  1 eigenvalues not converged
     c_bands:  1 eigenvalues not converged
     c_bands:  1 eigenvalues not converged
     c_bands:  1 eigenvalues not converged
     c_bands:  1 eigenvalues not converged
     c_bands:  2 eigenvalues not converged
     c_bands:  1 eigenvalues not converged
     c_bands:  1 eigenvalues not converged
     c_bands:  2 eigenvalues not converged
     c_bands:  2 eigenvalues not converged
     c_bands:  2 eigenvalues not converged
     c_bands:  1 eigenvalues not converged
     c_bands:  1 eigenvalues not converged
     c_bands:  1 eigenvalues not converged
     c_bands:  1 eigenvalues not converged
     c_bands:  2 eigenvalues not converged
     c_bands:  2 eigenvalues not converged
     c_bands:  2 eigenvalues not converged
     c_bands:  1 eigenvalues not converged
     c_bands:  1 eigenvalues not converged
     c_bands:  3 eigenvalues not converged
     c_bands:  1 eigenvalues not converged
     c_bands:  1 eigenvalues not converged
     c_bands:  1 eigenvalues not converged
     c_bands:  1 eigenvalues not converged
     c_bands:  2 eigenvalues not converged
     c_bands:  1 eigenvalues not converged
     c_bands:  1 eigenvalues not converged
     c_bands:  1 eigenvalues not converged
     c_bands:  2 eigenvalues not converged
     c_bands:  2 eigenvalues not converged
     c_bands:  1 eigenvalues not converged
     c_bands:  3 eigenvalues not converged
     c_bands:  4 eigenvalues not converged
     c_bands:  1 eigenvalues not converged
     c_bands:  2 eigenvalues not converged
     c_bands:  1 eigenvalues not converged
     c_bands:  2 eigenvalues not converged
     c_bands:  1 eigenvalues not converged
     c_bands:  1 eigenvalues not converged
     c_bands:  1 eigenvalues not converged
     c_bands:  1 eigenvalues not converged
     c_bands:  2 eigenvalues not converged
     c_bands:  1 eigenvalues not converged
     c_bands:  1 eigenvalues not converged
     c_bands:  1 eigenvalues not converged
     c_bands:  1 eigenvalues not converged
     c_bands:  1 eigenvalues not converged
     c_bands:  1 eigenvalues not converged
     c_bands:  1 eigenvalues not converged
     c_bands:  2 eigenvalues not converged
     c_bands:  1 eigenvalues not converged
     c_bands:  1 eigenvalues not converged
     c_bands:  1 eigenvalues not converged
     c_bands:  1 eigenvalues not converged
     c_bands:  2 eigenvalues not converged
     c_bands:  1 eigenvalues not converged
     c_bands:  1 eigenvalues not converged
     c_bands:  2 eigenvalues not converged
     c_bands:  1 eigenvalues not converged
     c_bands:  1 eigenvalues not converged
     c_bands:  1 eigenvalues not converged
     c_bands:  1 eigenvalues not converged
     c_bands:  1 eigenvalues not converged
     c_bands:  1 eigenvalues not converged
     c_bands:  1 eigenvalues not converged
     ethr =  9.07E-06,  avg # of iterations = 18.4

     negative rho (up, down):  6.797E+00 7.946E+00

     total cpu time spent up to now is      534.8 secs

     total energy              =    -689.61320617 Ry
     estimated scf accuracy    <    2985.39439345 Ry

     total magnetization       =    -0.21 Bohr mag/cell
     absolute magnetization    =    74.97 Bohr mag/cell

     iteration # 92     ecut=    60.00 Ry     beta= 0.70
     Davidson diagonalization with overlap
     c_bands:  1 eigenvalues not converged
     c_bands:  1 eigenvalues not converged
     c_bands:  1 eigenvalues not converged
     c_bands:  1 eigenvalues not converged
     c_bands:  1 eigenvalues not converged
     c_bands:  1 eigenvalues not converged
     c_bands:  1 eigenvalues not converged
     c_bands:  1 eigenvalues not converged
     c_bands:  1 eigenvalues not converged
     c_bands:  1 eigenvalues not converged
     c_bands:  1 eigenvalues not converged
     c_bands:  1 eigenvalues not converged
     c_bands:  1 eigenvalues not converged
     c_bands:  1 eigenvalues not converged
     c_bands:  1 eigenvalues not converged
     c_bands:  1 eigenvalues not converged
     c_bands:  1 eigenvalues not converged
     c_bands:  1 eigenvalues not converged
     c_bands:  1 eigenvalues not converged
     c_bands:  1 eigenvalues not converged
     c_bands:  1 eigenvalues not converged
     c_bands:  1 eigenvalues not converged
     c_bands:  1 eigenvalues not converged
     c_bands:  1 eigenvalues not converged
     c_bands:  1 eigenvalues not converged
     c_bands:  1 eigenvalues not converged
     ethr =  9.07E-06,  avg # of iterations = 14.0

     negative rho (up, down):  2.577E+00 1.437E+00

[...]
     c_bands:  1 eigenvalues not converged
     c_bands:  1 eigenvalues not converged
     c_bands:  1 eigenvalues not converged
     c_bands:  1 eigenvalues not converged
     ethr =  9.07E-06,  avg # of iterations = 17.3

     negative rho (up, down):  2.454E+00 2.849E+00

     total cpu time spent up to now is      559.9 secs

     total energy              =    -695.68742874 Ry
     estimated scf accuracy    <    3556.46847875 Ry

     total magnetization       =     0.21 Bohr mag/cell
     absolute magnetization    =    68.91 Bohr mag/cell

     iteration # 94     ecut=    60.00 Ry     beta= 0.70
     Davidson diagonalization with overlap
     c_bands:  1 eigenvalues not converged
     c_bands:  1 eigenvalues not converged
     c_bands:  1 eigenvalues not converged
     c_bands:  1 eigenvalues not converged
     c_bands:  1 eigenvalues not converged
     c_bands:  1 eigenvalues not converged
     c_bands:  1 eigenvalues not converged
     c_bands:  1 eigenvalues not converged
     c_bands:  1 eigenvalues not converged
     c_bands:  1 eigenvalues not converged
     c_bands:  1 eigenvalues not converged
     c_bands:  1 eigenvalues not converged
     c_bands:  1 eigenvalues not converged
     c_bands:  1 eigenvalues not converged
     c_bands:  1 eigenvalues not converged
     c_bands:  1 eigenvalues not converged
     c_bands:  1 eigenvalues not converged
     c_bands:  1 eigenvalues not converged
     c_bands:  1 eigenvalues not converged
     c_bands:  2 eigenvalues not converged
     c_bands:  2 eigenvalues not converged
     c_bands:  1 eigenvalues not converged
     c_bands:  1 eigenvalues not converged
     c_bands:  2 eigenvalues not converged
     c_bands:  1 eigenvalues not converged
     c_bands:  2 eigenvalues not converged
     c_bands:  1 eigenvalues not converged
     c_bands:  1 eigenvalues not converged
     c_bands:  1 eigenvalues not converged
     c_bands:  1 eigenvalues not converged
     c_bands:  1 eigenvalues not converged
     c_bands:  1 eigenvalues not converged
     c_bands:  2 eigenvalues not converged
     c_bands:  2 eigenvalues not converged
     c_bands:  1 eigenvalues not converged
     c_bands:  1 eigenvalues not converged
     c_bands:  2 eigenvalues not converged
     c_bands:  1 eigenvalues not converged
     c_bands:  1 eigenvalues not converged
     c_bands:  1 eigenvalues not converged
     c_bands:  1 eigenvalues not converged
     c_bands:  1 eigenvalues not converged
     c_bands:  1 eigenvalues not converged
     c_bands:  1 eigenvalues not converged
     c_bands:  1 eigenvalues not converged
     c_bands:  1 eigenvalues not converged
     c_bands:  1 eigenvalues not converged
     c_bands:  1 eigenvalues not converged
     c_bands:  1 eigenvalues not converged
     c_bands:  1 eigenvalues not converged
     c_bands:  1 eigenvalues not converged
     c_bands:  1 eigenvalues not converged
     ethr =  9.07E-06,  avg # of iterations = 15.5

     negative rho (up, down):  7.058E+00 9.087E+00

     total cpu time spent up to now is      572.4 secs

     total energy              =    -808.62602149 Ry
     estimated scf accuracy    <    2820.38589504 Ry

     total magnetization       =     0.15 Bohr mag/cell
     absolute magnetization    =   119.88 Bohr mag/cell

     iteration # 95     ecut=    60.00 Ry     beta= 0.70
     Davidson diagonalization with overlap
     c_bands:  1 eigenvalues not converged
     c_bands:  1 eigenvalues not converged
     c_bands:  1 eigenvalues not converged
     c_bands:  1 eigenvalues not converged
     c_bands:  2 eigenvalues not converged
     c_bands:  1 eigenvalues not converged
     c_bands:  1 eigenvalues not converged
     c_bands:  1 eigenvalues not converged
     c_bands:  1 eigenvalues not converged
     c_bands:  1 eigenvalues not converged
     c_bands:  1 eigenvalues not converged
     c_bands:  1 eigenvalues not converged
     c_bands:  1 eigenvalues not converged
     c_bands:  2 eigenvalues not converged
     c_bands:  1 eigenvalues not converged
     c_bands:  1 eigenvalues not converged
     c_bands:  1 eigenvalues not converged
     c_bands:  1 eigenvalues not converged
     c_bands:  2 eigenvalues not converged
     c_bands:  1 eigenvalues not converged
     c_bands:  1 eigenvalues not converged
     c_bands:  1 eigenvalues not converged
     c_bands:  1 eigenvalues not converged
     c_bands:  1 eigenvalues not converged
     c_bands:  1 eigenvalues not converged
     c_bands:  2 eigenvalues not converged
     c_bands:  1 eigenvalues not converged
     c_bands:  1 eigenvalues not converged
     c_bands:  1 eigenvalues not converged
     c_bands:  1 eigenvalues not converged
     c_bands:  1 eigenvalues not converged
     c_bands:  1 eigenvalues not converged
     c_bands:  1 eigenvalues not converged
     c_bands:  1 eigenvalues not converged
     c_bands:  1 eigenvalues not converged
     c_bands:  1 eigenvalues not converged
     c_bands:  1 eigenvalues not converged
     c_bands:  1 eigenvalues not converged
     c_bands:  1 eigenvalues not converged
     c_bands:  1 eigenvalues not converged
     c_bands:  2 eigenvalues not converged
     c_bands:  1 eigenvalues not converged
     c_bands:  1 eigenvalues not converged
     c_bands:  1 eigenvalues not converged
     c_bands:  1 eigenvalues not converged
     c_bands:  2 eigenvalues not converged
     c_bands:  1 eigenvalues not converged
     c_bands:  1 eigenvalues not converged
     c_bands:  1 eigenvalues not converged
     c_bands:  1 eigenvalues not converged
     c_bands:  1 eigenvalues not converged
     c_bands:  1 eigenvalues not converged
     c_bands:  1 eigenvalues not converged
     c_bands:  3 eigenvalues not converged
     c_bands:  1 eigenvalues not converged
     c_bands:  1 eigenvalues not converged
     c_bands:  1 eigenvalues not converged
     c_bands:  1 eigenvalues not converged
     c_bands:  1 eigenvalues not converged
     c_bands:  1 eigenvalues not converged
     c_bands:  1 eigenvalues not converged
     c_bands:  1 eigenvalues not converged
     c_bands:  1 eigenvalues not converged
     c_bands:  1 eigenvalues not converged
     c_bands:  1 eigenvalues not converged
     c_bands:  2 eigenvalues not converged
     c_bands:  1 eigenvalues not converged
     ethr =  9.07E-06,  avg # of iterations = 17.3

     negative rho (up, down):  5.192E+00 5.876E+00

     total cpu time spent up to now is      585.7 secs

     total energy              =    -628.64850924 Ry
     estimated scf accuracy    <    3064.90275584 Ry

     total magnetization       =    -0.21 Bohr mag/cell
     absolute magnetization    =    75.86 Bohr mag/cell

     iteration # 96     ecut=    60.00 Ry     beta= 0.70
     Davidson diagonalization with overlap
     c_bands:  1 eigenvalues not converged
     c_bands:  1 eigenvalues not converged
     c_bands:  1 eigenvalues not converged
     c_bands:  1 eigenvalues not converged
     c_bands:  1 eigenvalues not converged
     c_bands:  1 eigenvalues not converged
     c_bands:  1 eigenvalues not converged
     c_bands:  1 eigenvalues not converged
     c_bands:  1 eigenvalues not converged
     c_bands:  1 eigenvalues not converged
     c_bands:  2 eigenvalues not converged
     c_bands:  1 eigenvalues not converged
     c_bands:  1 eigenvalues not converged
     c_bands:  1 eigenvalues not converged
     c_bands:  2 eigenvalues not converged
     c_bands:  1 eigenvalues not converged
     c_bands:  1 eigenvalues not converged
     c_bands:  1 eigenvalues not converged
     c_bands:  1 eigenvalues not converged
     c_bands:  2 eigenvalues not converged
     c_bands:  1 eigenvalues not converged
     c_bands:  1 eigenvalues not converged
     c_bands:  1 eigenvalues not converged
     c_bands:  1 eigenvalues not converged
     c_bands:  1 eigenvalues not converged
     c_bands:  2 eigenvalues not converged
     c_bands:  1 eigenvalues not converged
     c_bands:  1 eigenvalues not converged
     c_bands:  1 eigenvalues not converged
     c_bands:  1 eigenvalues not converged
     c_bands:  1 eigenvalues not converged
     c_bands:  1 eigenvalues not converged
     c_bands:  2 eigenvalues not converged
     c_bands:  1 eigenvalues not converged
     c_bands:  1 eigenvalues not converged
     c_bands:  1 eigenvalues not converged
     c_bands:  1 eigenvalues not converged
     c_bands:  1 eigenvalues not converged
     c_bands:  1 eigenvalues not converged
     c_bands:  1 eigenvalues not converged
     c_bands:  1 eigenvalues not converged
     c_bands:  1 eigenvalues not converged
     c_bands:  1 eigenvalues not converged
     c_bands:  1 eigenvalues not converged
     c_bands:  1 eigenvalues not converged
     ethr =  9.07E-06,  avg # of iterations = 16.6

     negative rho (up, down):  5.483E+00 5.810E+00

     total cpu time spent up to now is      598.3 secs

     total energy              =    -772.23390243 Ry
     estimated scf accuracy    <    2167.12887525 Ry

     total magnetization       =     0.05 Bohr mag/cell
     absolute magnetization    =   124.28 Bohr mag/cell

     iteration # 97     ecut=    60.00 Ry     beta= 0.70
     Davidson diagonalization with overlap
     c_bands:  1 eigenvalues not converged
     c_bands:  1 eigenvalues not converged
     c_bands:  1 eigenvalues not converged
     c_bands:  1 eigenvalues not converged
     c_bands:  1 eigenvalues not converged
     c_bands:  2 eigenvalues not converged
     c_bands:  1 eigenvalues not converged
     c_bands:  1 eigenvalues not converged
     ethr =  9.07E-06,  avg # of iterations = 11.5

     negative rho (up, down):  5.528E+00 5.865E+00

     total cpu time spent up to now is      606.8 secs

     total energy              =    -783.49758981 Ry
     estimated scf accuracy    <    2220.01815225 Ry

     total magnetization       =     0.05 Bohr mag/cell
     absolute magnetization    =   128.26 Bohr mag/cell

     iteration # 98     ecut=    60.00 Ry     beta= 0.70
     Davidson diagonalization with overlap
     ethr =  9.07E-06,  avg # of iterations =  8.2

     negative rho (up, down):  8.497E+00 1.318E+01

     total cpu time spent up to now is      613.3 secs

     total energy              =    -802.53829223 Ry
     estimated scf accuracy    <    2212.81605479 Ry

     total magnetization       =    -0.10 Bohr mag/cell
     absolute magnetization    =   126.68 Bohr mag/cell

     iteration # 99     ecut=    60.00 Ry     beta= 0.70
     Davidson diagonalization with overlap
     c_bands:  1 eigenvalues not converged
     c_bands:  1 eigenvalues not converged
     c_bands:  1 eigenvalues not converged
     c_bands:  1 eigenvalues not converged
     c_bands:  1 eigenvalues not converged
     c_bands:  1 eigenvalues not converged
     c_bands:  3 eigenvalues not converged
     c_bands:  3 eigenvalues not converged
     c_bands:  1 eigenvalues not converged
     c_bands:  1 eigenvalues not converged
     c_bands:  1 eigenvalues not converged
     c_bands:  1 eigenvalues not converged
     c_bands:  1 eigenvalues not converged
     c_bands:  1 eigenvalues not converged
     c_bands:  2 eigenvalues not converged
     c_bands:  2 eigenvalues not converged
     c_bands:  1 eigenvalues not converged
     c_bands:  1 eigenvalues not converged
     c_bands:  2 eigenvalues not converged
     c_bands:  3 eigenvalues not converged
     c_bands:  1 eigenvalues not converged
     c_bands:  1 eigenvalues not converged
     c_bands:  1 eigenvalues not converged
     c_bands:  1 eigenvalues not converged
     c_bands:  1 eigenvalues not converged
     c_bands:  1 eigenvalues not converged
     c_bands:  1 eigenvalues not converged
     c_bands:  1 eigenvalues not converged
     c_bands:  1 eigenvalues not converged
     c_bands:  2 eigenvalues not converged
     c_bands:  1 eigenvalues not converged
     c_bands:  2 eigenvalues not converged
     c_bands:  1 eigenvalues not converged
     c_bands:  1 eigenvalues not converged
     c_bands:  5 eigenvalues not converged
     c_bands:  2 eigenvalues not converged
     c_bands:  2 eigenvalues not converged
     c_bands:  2 eigenvalues not converged
     c_bands:  2 eigenvalues not converged
     c_bands:  2 eigenvalues not converged
     c_bands:  1 eigenvalues not converged
     c_bands:  1 eigenvalues not converged
     c_bands:  1 eigenvalues not converged
     c_bands:  1 eigenvalues not converged
     c_bands:  1 eigenvalues not converged
     c_bands:  1 eigenvalues not converged
     c_bands:  4 eigenvalues not converged
     c_bands:  1 eigenvalues not converged
     c_bands:  1 eigenvalues not converged
     c_bands:  1 eigenvalues not converged
     c_bands:  1 eigenvalues not converged
     c_bands:  3 eigenvalues not converged
     c_bands:  2 eigenvalues not converged
     c_bands:  1 eigenvalues not converged
     c_bands:  2 eigenvalues not converged
     c_bands:  2 eigenvalues not converged
     c_bands:  3 eigenvalues not converged
     c_bands:  2 eigenvalues not converged
     c_bands:  1 eigenvalues not converged
     c_bands:  1 eigenvalues not converged
     c_bands:  1 eigenvalues not converged
     c_bands:  1 eigenvalues not converged
     c_bands:  2 eigenvalues not converged
     c_bands:  1 eigenvalues not converged
     c_bands:  1 eigenvalues not converged
     c_bands:  1 eigenvalues not converged
     c_bands:  1 eigenvalues not converged
     c_bands:  2 eigenvalues not converged
     c_bands:  2 eigenvalues not converged
     c_bands:  1 eigenvalues not converged
     c_bands:  1 eigenvalues not converged
     c_bands:  1 eigenvalues not converged
     c_bands:  1 eigenvalues not converged
     c_bands:  1 eigenvalues not converged
     c_bands:  1 eigenvalues not converged
     c_bands:  2 eigenvalues not converged
     c_bands:  1 eigenvalues not converged
     c_bands:  2 eigenvalues not converged
     c_bands:  1 eigenvalues not converged
     c_bands:  2 eigenvalues not converged
     c_bands:  3 eigenvalues not converged
     c_bands:  1 eigenvalues not converged
     c_bands:  1 eigenvalues not converged
     ethr =  9.07E-06,  avg # of iterations = 19.3

     negative rho (up, down):  1.597E+01 5.249E+00

     total cpu time spent up to now is      628.0 secs

     total energy              =    -178.83952464 Ry
     estimated scf accuracy    <    4107.86934022 Ry

     total magnetization       =    -0.08 Bohr mag/cell
     absolute magnetization    =    59.40 Bohr mag/cell

     iteration #100     ecut=    60.00 Ry     beta= 0.70
     Davidson diagonalization with overlap
     c_bands:  5 eigenvalues not converged
     c_bands:  2 eigenvalues not converged
     c_bands:  5 eigenvalues not converged
     c_bands:  5 eigenvalues not converged
     c_bands:  5 eigenvalues not converged
     c_bands:  1 eigenvalues not converged
     c_bands:  2 eigenvalues not converged
     c_bands:  2 eigenvalues not converged
     c_bands:  3 eigenvalues not converged
     c_bands:  5 eigenvalues not converged
     c_bands:  2 eigenvalues not converged
     c_bands:  5 eigenvalues not converged
     c_bands:  4 eigenvalues not converged
     c_bands:  2 eigenvalues not converged
     c_bands:  3 eigenvalues not converged
     c_bands:  4 eigenvalues not converged
     c_bands:  2 eigenvalues not converged
     c_bands:  2 eigenvalues not converged
     c_bands:  5 eigenvalues not converged
     c_bands:  3 eigenvalues not converged
     c_bands:  3 eigenvalues not converged
     c_bands:  4 eigenvalues not converged
     c_bands:  2 eigenvalues not converged
     c_bands:  3 eigenvalues not converged
     c_bands:  3 eigenvalues not converged
     c_bands:  3 eigenvalues not converged
     c_bands:  2 eigenvalues not converged
     c_bands:  5 eigenvalues not converged
     c_bands:  3 eigenvalues not converged
     c_bands:  3 eigenvalues not converged
     c_bands:  3 eigenvalues not converged
     c_bands:  3 eigenvalues not converged
     c_bands:  4 eigenvalues not converged
     c_bands:  5 eigenvalues not converged
     c_bands:  4 eigenvalues not converged
     c_bands:  4 eigenvalues not converged
     c_bands:  5 eigenvalues not converged
     c_bands:  4 eigenvalues not converged
     c_bands:  5 eigenvalues not converged
     c_bands:  3 eigenvalues not converged
     c_bands:  4 eigenvalues not converged
     c_bands:  4 eigenvalues not converged
     c_bands:  4 eigenvalues not converged
     c_bands:  4 eigenvalues not converged
     c_bands:  5 eigenvalues not converged
     c_bands:  4 eigenvalues not converged
     c_bands:  3 eigenvalues not converged
     c_bands:  4 eigenvalues not converged
     c_bands:  3 eigenvalues not converged
     c_bands:  3 eigenvalues not converged
     c_bands:  3 eigenvalues not converged
     c_bands:  2 eigenvalues not converged
     c_bands:  3 eigenvalues not converged
     c_bands:  3 eigenvalues not converged
     c_bands:  3 eigenvalues not converged
     c_bands:  3 eigenvalues not converged
     c_bands:  3 eigenvalues not converged
     c_bands:  3 eigenvalues not converged
     c_bands:  3 eigenvalues not converged
     c_bands:  4 eigenvalues not converged
     c_bands:  5 eigenvalues not converged
     c_bands:  4 eigenvalues not converged
     c_bands:  3 eigenvalues not converged
     ethr =  9.07E-06,  avg # of iterations = 28.7

     negative rho (up, down):  8.486E+00 1.051E+01

     total cpu time spent up to now is      652.9 secs

     total energy              =    -332.60649717 Ry
     estimated scf accuracy    <    5776.30045838 Ry

     total magnetization       =     0.42 Bohr mag/cell
     absolute magnetization    =    15.26 Bohr mag/cell

     End of self-consistent calculation

     convergence NOT achieved after 100 iterations: stopping

     Writing config to output data dir ./out/pwscf.save/

     init_run     :      0.68s CPU      0.81s WALL (       1 calls)
     electrons    :    545.87s CPU    651.99s WALL (       1 calls)

     Called by init_run:
     wfcinit      :      0.54s CPU      0.63s WALL (       1 calls)
     potinit      :      0.03s CPU      0.03s WALL (       1 calls)
     hinit0       :      0.10s CPU      0.13s WALL (       1 calls)

     Called by electrons:
     c_bands      :    520.27s CPU    622.83s WALL (     100 calls)
     sum_band     :     24.10s CPU     27.45s WALL (     100 calls)
     v_of_rho     :      0.90s CPU      0.95s WALL (     101 calls)
     newd         :      0.45s CPU      0.49s WALL (     101 calls)
     mix_rho      :      0.09s CPU      0.14s WALL (     100 calls)

     Called by c_bands:
     init_us_2    :      0.97s CPU      1.18s WALL (   45426 calls)
     init_us_2:cp :      0.92s CPU      1.13s WALL (   45426 calls)
     cegterg      :    508.88s CPU    586.14s WALL (   22800 calls)

     Called by *egterg:
     cdiaghg      :    124.11s CPU    144.97s WALL (  203048 calls)
     h_psi        :    251.49s CPU    292.58s WALL (  203274 calls)
     s_psi        :     16.21s CPU     18.10s WALL (  203274 calls)
     g_psi        :      0.84s CPU      0.90s WALL (  180248 calls)

     Called by h_psi:
     h_psi:calbec :     16.91s CPU     19.42s WALL (  203274 calls)
     vloc_psi     :    217.25s CPU    253.55s WALL (  203274 calls)
     add_vuspsi   :     16.28s CPU     18.41s WALL (  203274 calls)

     General routines
     calbec       :     19.22s CPU     22.08s WALL (  225874 calls)
     fft          :      0.28s CPU      0.35s WALL (    2523 calls)
     ffts         :      0.02s CPU      0.02s WALL (     402 calls)
     fftw         :    223.48s CPU    260.43s WALL ( 6417378 calls)
     interpolate  :      0.03s CPU      0.04s WALL (     202 calls)
     davcio       :      0.00s CPU      0.00s WALL (      18 calls)

     Parallel routines

     PWSCF        :   9m 6.69s CPU  10m52.99s WALL


   This run was terminated on:  15:35:34  23Jun2023            

=------------------------------------------------------------------------------=
   JOB DONE.
=------------------------------------------------------------------------------=
