Ignoring PCI device with non-16bit domain.
Pass --enable-32bits-pci-domain to configure to support such devices
(warning: it would break the library ABI, don't enable unless really needed).

     Program PWSCF v.7.1 starts on 18Jun2023 at 11:38:59 

     This program is part of the open-source Quantum ESPRESSO suite
     for quantum simulation of materials; please cite
         "P. Giannozzi et al., J. Phys.:Condens. Matter 21 395502 (2009);
         "P. Giannozzi et al., J. Phys.:Condens. Matter 29 465901 (2017);
         "P. Giannozzi et al., J. Chem. Phys. 152 154105 (2020);
          URL http://www.quantum-espresso.org", 
     in publications or presentations arising from this work. More details at
     http://www.quantum-espresso.org/quote

     Parallel version (MPI), running on    24 processors

     MPI processes distributed on     1 nodes
     9617 MiB available memory on the printing compute node when the environment starts

     Reading input from Ni_monoclinic_sm_atoms.in
Warning: card &CELL ignored
Warning: card   CELL_DOFREE  =  "ALL", ignored
Warning: card   CELL_DYNAMICS  =  "BFGS", ignored
Warning: card / ignored

     Current dimensions of program PWSCF are:
     Max number of different atomic species (ntypx) = 10
     Max number of k-points (npk) =  40000
     Max angular momentum in pseudopotentials (lmaxx) =  4

     K-points division:     npool     =       3
     R & G space division:  proc/nbgrp/npool/nimage =       8
     Subspace diagonalization in iterative solution of the eigenvalue problem:
     a serial algorithm will be used


     Parallelization info
     --------------------
     sticks:   dense  smooth     PW     G-vecs:    dense   smooth      PW
     Min          17      17      6                  174      174      41
     Max          18      18      7                  176      176      45
     Sum         143     143     51                 1403     1403     343

     Using Slab Decomposition



     bravais-lattice index     =            0
     lattice parameter (alat)  =       2.5816  a.u.
     unit-cell volume          =      14.5969 (a.u.)^3
     number of atoms/cell      =            1
     number of atomic types    =            1
     number of electrons       =        18.00
     number of Kohn-Sham states=           13
     kinetic-energy cutoff     =      80.0000  Ry
     charge density cutoff     =     320.0000  Ry
     scf convergence threshold =      1.0E-09
     mixing beta               =       0.7000
     number of iterations used =            8  TF        mixing
     Exchange-correlation= PBE
                           (   1   4   3   4   0   0   0)

     celldm(1)=   2.581649  celldm(2)=   0.000000  celldm(3)=   0.000000
     celldm(4)=   0.000000  celldm(5)=   0.000000  celldm(6)=   0.000000

     crystal axes: (cart. coord. in units of alat)
               a(1) = (   1.000000   0.000000   0.000000 )  
               a(2) = (   0.000000   0.833335   0.000000 )  
               a(3) = (  -0.370523   0.000000   1.018003 )  

     reciprocal axes: (cart. coord. in units 2 pi/alat)
               b(1) = (  1.000000 -0.000000  0.363970 )  
               b(2) = (  0.000000  1.199998 -0.000000 )  
               b(3) = (  0.000000  0.000000  0.982315 )  


     PseudoPot. # 1 for Ni read from file:
     /home/jmgoff/work/automation/qe_pseudos/Ni.upf
     MD5 check sum: 2b0a79d100e227970886d6963e34175b
     Pseudo is Norm-conserving + core correction, Zval = 18.0
     Generated using ONCVPSP code by D. R. Hamann
     Using radial grid of 1372 points,  6 beta functions with: 
                l(1) =   0
                l(2) =   0
                l(3) =   1
                l(4) =   1
                l(5) =   2
                l(6) =   2

     atomic species   valence    mass     pseudopotential
        Ni            18.00    58.69340     Ni( 1.00)

     Starting magnetic structure 
     atomic species   magnetization
        Ni           0.700

     No symmetry found



   Cartesian axes

     site n.     atom                  positions (alat units)
         1           Ni  tau(   1) = (   0.0000000   0.0000000   0.0000000  )

     number of k points=   542  Marzari-Vanderbilt smearing, width (Ry)=  0.0100

     Number of k-points >= 100: set verbosity='high' to print them.

     Dense  grid:     1403 G-vectors     FFT dimensions: (  15,  15,  15)

     Estimated max dynamical RAM per process >       3.25 MB

     Estimated total dynamical RAM >      76.69 MB
     Generating pointlists ...
     new r_m :   0.3438 (alat units)  0.8874 (a.u.) for type    1

     Initial potential from superposition of free atoms

     starting charge      17.9998, renormalised to      18.0000
     Starting wfcs are   10 randomized atomic wfcs +    3 random wfcs

     total cpu time spent up to now is        0.3 secs

     Self-consistent Calculation

     iteration #  1     ecut=    80.00 Ry     beta= 0.70
     Davidson diagonalization with overlap
     ethr =  1.00E-02,  avg # of iterations =  4.8

     total cpu time spent up to now is        1.5 secs

     total energy              =    -328.00080370 Ry
     estimated scf accuracy    <       5.73731054 Ry

     total magnetization       =     0.91 Bohr mag/cell
     absolute magnetization    =     0.91 Bohr mag/cell

     iteration #  2     ecut=    80.00 Ry     beta= 0.70
     Davidson diagonalization with overlap
     ethr =  1.00E-02,  avg # of iterations =  1.0

     total cpu time spent up to now is        2.1 secs

     total energy              =    -328.43178209 Ry
     estimated scf accuracy    <       0.75044016 Ry

     total magnetization       =     0.30 Bohr mag/cell
     absolute magnetization    =     0.30 Bohr mag/cell

     iteration #  3     ecut=    80.00 Ry     beta= 0.70
     Davidson diagonalization with overlap
     ethr =  4.17E-03,  avg # of iterations =  1.0

     total cpu time spent up to now is        2.7 secs

     total energy              =    -328.46832138 Ry
     estimated scf accuracy    <       0.00260356 Ry

     total magnetization       =     0.01 Bohr mag/cell
     absolute magnetization    =     0.02 Bohr mag/cell

     iteration #  4     ecut=    80.00 Ry     beta= 0.70
     Davidson diagonalization with overlap
     ethr =  1.45E-05,  avg # of iterations =  2.3

     total cpu time spent up to now is        3.5 secs

     total energy              =    -328.46864954 Ry
     estimated scf accuracy    <       0.00017641 Ry

     total magnetization       =     0.00 Bohr mag/cell
     absolute magnetization    =     0.01 Bohr mag/cell

     iteration #  5     ecut=    80.00 Ry     beta= 0.70
     Davidson diagonalization with overlap
     ethr =  9.80E-07,  avg # of iterations =  1.7

     total cpu time spent up to now is        4.3 secs

     total energy              =    -328.46866429 Ry
     estimated scf accuracy    <       0.00000867 Ry

     total magnetization       =     0.00 Bohr mag/cell
     absolute magnetization    =     0.00 Bohr mag/cell

     iteration #  6     ecut=    80.00 Ry     beta= 0.70
     Davidson diagonalization with overlap
     ethr =  4.82E-08,  avg # of iterations =  1.6

     total cpu time spent up to now is        5.0 secs

     total energy              =    -328.46866578 Ry
     estimated scf accuracy    <       0.00000017 Ry

     total magnetization       =    -0.00 Bohr mag/cell
     absolute magnetization    =     0.00 Bohr mag/cell

     iteration #  7     ecut=    80.00 Ry     beta= 0.70
     Davidson diagonalization with overlap
     ethr =  9.46E-10,  avg # of iterations =  1.5

     total cpu time spent up to now is        5.7 secs

     total energy              =    -328.46866579 Ry
     estimated scf accuracy    <       0.00000002 Ry

     total magnetization       =    -0.00 Bohr mag/cell
     absolute magnetization    =     0.00 Bohr mag/cell

     iteration #  8     ecut=    80.00 Ry     beta= 0.70
     Davidson diagonalization with overlap
     ethr =  9.55E-11,  avg # of iterations =  1.0

     Magnetic moment per site  (integrated on atomic sphere of radius R)
     atom   1 (R=0.344)  charge= 11.8257  magn= -0.0000

     total cpu time spent up to now is        6.3 secs

     End of self-consistent calculation

     Number of k-points >= 100: set verbosity='high' to print the bands.

     the Fermi energy is   110.0897 ev

!    total energy              =    -328.46866579 Ry
     estimated scf accuracy    <          1.8E-10 Ry
     smearing contrib. (-TS)   =       0.00004326 Ry
     internal energy E=F+TS    =    -328.46870905 Ry

     The total energy is F=E-TS. E is the sum of the following terms:
     one-electron contribution =      56.43755002 Ry
     hartree contribution      =      35.96649516 Ry
     xc contribution           =     -47.65120503 Ry
     ewald contribution        =    -373.22154919 Ry

     total magnetization       =    -0.00 Bohr mag/cell
     absolute magnetization    =     0.00 Bohr mag/cell

     convergence has been achieved in   8 iterations

     Forces acting on atoms (cartesian axes, Ry/au):

     atom    1 type  1   force =     0.00000000    0.00000000    0.00000000

     Total force =     0.000000     Total SCF correction =     0.000000


     Computing stress (Cartesian axis) and pressure

          total   stress  (Ry/bohr**3)                   (kbar)     P=   139421.18
   0.75756685   0.00000000  -0.03194395       111441.93        0.00    -4699.12
   0.00000000   1.53167645  -0.00000000            0.00   225317.39       -0.00
  -0.03194395  -0.00000000   0.55405449        -4699.12       -0.00    81504.23


     Writing all to output data dir ./out/pwscf.save/

     init_run     :      0.17s CPU      0.23s WALL (       1 calls)
     electrons    :      4.35s CPU      5.98s WALL (       1 calls)
     forces       :      0.05s CPU      0.06s WALL (       1 calls)
     stress       :      0.08s CPU      0.09s WALL (       1 calls)

     Called by init_run:
     wfcinit      :      0.15s CPU      0.21s WALL (       1 calls)
     potinit      :      0.00s CPU      0.00s WALL (       1 calls)
     hinit0       :      0.01s CPU      0.02s WALL (       1 calls)

     Called by electrons:
     c_bands      :      3.87s CPU      5.36s WALL (       8 calls)
     sum_band     :      0.47s CPU      0.61s WALL (       8 calls)
     v_of_rho     :      0.01s CPU      0.01s WALL (       9 calls)
     mix_rho      :      0.00s CPU      0.00s WALL (       8 calls)

     Called by c_bands:
     init_us_2    :      0.05s CPU      0.06s WALL (    6878 calls)
     init_us_2:cp :      0.04s CPU      0.05s WALL (    6878 calls)
     cegterg      :      3.53s CPU      4.78s WALL (    2896 calls)

     Called by *egterg:
     cdiaghg      :      0.94s CPU      1.21s WALL (    8236 calls)
     h_psi        :      2.20s CPU      3.04s WALL (    8598 calls)
     g_psi        :      0.01s CPU      0.01s WALL (    5340 calls)

     Called by h_psi:
     h_psi:calbec :      0.16s CPU      0.22s WALL (    8598 calls)
     vloc_psi     :      1.93s CPU      2.67s WALL (    8598 calls)
     add_vuspsi   :      0.09s CPU      0.12s WALL (    8598 calls)

     General routines
     calbec       :      0.19s CPU      0.26s WALL (   10408 calls)
     fft          :      0.00s CPU      0.00s WALL (     211 calls)
     ffts         :      0.00s CPU      0.00s WALL (      16 calls)
     fftw         :      2.19s CPU      3.00s WALL (  217796 calls)

     Parallel routines

     PWSCF        :      4.91s CPU      7.09s WALL


   This run was terminated on:  11:39: 7  18Jun2023            

=------------------------------------------------------------------------------=
   JOB DONE.
=------------------------------------------------------------------------------=
Note: The following floating-point exceptions are signalling: IEEE_DENORMAL
Note: The following floating-point exceptions are signalling: IEEE_DENORMAL
Note: The following floating-point exceptions are signalling: IEEE_DENORMAL
