Ignoring PCI device with non-16bit domain.
Pass --enable-32bits-pci-domain to configure to support such devices
(warning: it would break the library ABI, don't enable unless really needed).

     Program PWSCF v.7.1 starts on 23Jun2023 at 14:52:19 

     This program is part of the open-source Quantum ESPRESSO suite
     for quantum simulation of materials; please cite
         "P. Giannozzi et al., J. Phys.:Condens. Matter 21 395502 (2009);
         "P. Giannozzi et al., J. Phys.:Condens. Matter 29 465901 (2017);
         "P. Giannozzi et al., J. Chem. Phys. 152 154105 (2020);
          URL http://www.quantum-espresso.org", 
     in publications or presentations arising from this work. More details at
     http://www.quantum-espresso.org/quote

     Parallel version (MPI), running on    24 processors

     MPI processes distributed on     1 nodes
     12255 MiB available memory on the printing compute node when the environment starts

     Reading input from Ni_orthorhombic_boco_atoms.in

     Current dimensions of program PWSCF are:
     Max number of different atomic species (ntypx) = 10
     Max number of k-points (npk) =  40000
     Max angular momentum in pseudopotentials (lmaxx) =  4
     Found identity + (  0.0000  0.0000 -0.5000) symmetry
     This is a supercell, fractional translations are disabled

     K-points division:     npool     =       2
     R & G space division:  proc/nbgrp/npool/nimage =      12
     Subspace diagonalization in iterative solution of the eigenvalue problem:
     a serial algorithm will be used


     Parallelization info
     --------------------
     sticks:   dense  smooth     PW     G-vecs:    dense   smooth      PW
     Min          48      23      8                 1338      468     105
     Max          49      24      9                 1341      475     112
     Sum         581     287    107                16067     5667    1303

     Using Slab Decomposition



     bravais-lattice index     =            0
     lattice parameter (alat)  =       3.9315  a.u.
     unit-cell volume          =      90.3593 (a.u.)^3
     number of atoms/cell      =            2
     number of atomic types    =            1
     number of electrons       =        36.00
     number of Kohn-Sham states=           22
     kinetic-energy cutoff     =      60.0000  Ry
     charge density cutoff     =     480.0000  Ry
     scf convergence threshold =      1.0E-06
     mixing beta               =       0.7000
     number of iterations used =            8  TF        mixing
     energy convergence thresh.=      1.0E-05
     force convergence thresh. =      1.0E-04
     press convergence thresh. =      5.0E-01
     Exchange-correlation= PBE
                           (   1   4   3   4   0   0   0)
     nstep                     =           50


     celldm(1)=   3.931537  celldm(2)=   0.000000  celldm(3)=   0.000000
     celldm(4)=   0.000000  celldm(5)=   0.000000  celldm(6)=   0.000000

     crystal axes: (cart. coord. in units of alat)
               a(1) = (   1.000000   0.000000   0.000000 )  
               a(2) = (  -0.181601   0.983372   0.000000 )  
               a(3) = (  -0.605339  -1.160712   1.512056 )  

     reciprocal axes: (cart. coord. in units 2 pi/alat)
               b(1) = (  1.000000  0.184671  0.542102 )  
               b(2) = ( -0.000000  1.016909  0.780618 )  
               b(3) = (  0.000000 -0.000000  0.661351 )  


     PseudoPot. # 1 for Ni read from file:
     /home/jmgoff/work/automation/qe_pseudos/Ni.upf
     MD5 check sum: caf20d35bef94d268ef04de15446df97
     Pseudo is Ultrasoft + core correction, Zval = 18.0
     Generated using 'atomic' code by A. Dal Corso  v.7.1
     Using radial grid of 1195 points,  6 beta functions with: 
                l(1) =   0
                l(2) =   0
                l(3) =   1
                l(4) =   1
                l(5) =   2
                l(6) =   2
     Q(r) pseudized with 0 coefficients 


     atomic species   valence    mass     pseudopotential
        Ni            18.00    58.69340     Ni( 1.00)

     Starting magnetic structure 
     atomic species   magnetization
        Ni           1.000

     No symmetry found



   Cartesian axes

     site n.     atom                  positions (alat units)
         1           Ni  tau(   1) = (   0.0000000   0.0000000   0.0000000  )
         2           Ni  tau(   2) = (  -0.3026693  -0.5803559   0.7560280  )

     number of k points=   303  Marzari-Vanderbilt smearing, width (Ry)=  0.0100

     Number of k-points >= 100: set verbosity='high' to print them.

     Dense  grid:    16067 G-vectors     FFT dimensions: (  27,  27,  60)

     Smooth grid:     5667 G-vectors     FFT dimensions: (  20,  20,  40)

     Estimated max dynamical RAM per process >      12.99 MB

     Estimated total dynamical RAM >     304.03 MB

     Check: negative core charge=   -0.000002
     Generating pointlists ...
     new r_m :   0.4060 (alat units)  1.5960 (a.u.) for type    1

     Initial potential from superposition of free atoms

     starting charge      35.9995, renormalised to      36.0000
     Starting wfcs are   20 randomized atomic wfcs +    2 random wfcs

     total cpu time spent up to now is        1.0 secs

     Self-consistent Calculation

     iteration #  1     ecut=    60.00 Ry     beta= 0.70
     Davidson diagonalization with overlap
     ethr =  1.00E-02,  avg # of iterations =  4.8

     total cpu time spent up to now is        4.8 secs

     total energy              =    -673.71432176 Ry
     estimated scf accuracy    <      16.21246285 Ry

     total magnetization       =     7.98 Bohr mag/cell
     absolute magnetization    =     8.19 Bohr mag/cell

     iteration #  2     ecut=    60.00 Ry     beta= 0.70
     Davidson diagonalization with overlap
     ethr =  1.00E-02,  avg # of iterations =  2.1

     total cpu time spent up to now is        7.9 secs

     total energy              =    -678.02329912 Ry
     estimated scf accuracy    <       5.18285421 Ry

     total magnetization       =     2.52 Bohr mag/cell
     absolute magnetization    =     3.17 Bohr mag/cell

     iteration #  3     ecut=    60.00 Ry     beta= 0.70
     Davidson diagonalization with overlap
     ethr =  1.00E-02,  avg # of iterations =  1.9

     negative rho (up, down):  0.000E+00 4.166E-04

     total cpu time spent up to now is       10.6 secs

     total energy              =    -679.01250611 Ry
     estimated scf accuracy    <       1.22482070 Ry

     total magnetization       =     1.97 Bohr mag/cell
     absolute magnetization    =     2.92 Bohr mag/cell

     iteration #  4     ecut=    60.00 Ry     beta= 0.70
     Davidson diagonalization with overlap
     ethr =  3.40E-03,  avg # of iterations =  3.1

     total cpu time spent up to now is       13.9 secs

     total energy              =    -671.15572853 Ry
     estimated scf accuracy    <     442.73446405 Ry

     total magnetization       =     0.72 Bohr mag/cell
     absolute magnetization    =    34.45 Bohr mag/cell

     iteration #  5     ecut=    60.00 Ry     beta= 0.70
     Davidson diagonalization with overlap
     ethr =  3.40E-03,  avg # of iterations =  2.3

     total cpu time spent up to now is       16.8 secs

     total energy              =    -678.67345250 Ry
     estimated scf accuracy    <       1.95242586 Ry

     total magnetization       =     1.08 Bohr mag/cell
     absolute magnetization    =     2.62 Bohr mag/cell

     iteration #  6     ecut=    60.00 Ry     beta= 0.70
     Davidson diagonalization with overlap
     ethr =  3.40E-03,  avg # of iterations =  2.0

     total cpu time spent up to now is       19.5 secs

     total energy              =    -678.94958437 Ry
     estimated scf accuracy    <       3.86531678 Ry

     total magnetization       =     1.03 Bohr mag/cell
     absolute magnetization    =     3.41 Bohr mag/cell

     iteration #  7     ecut=    60.00 Ry     beta= 0.70
     Davidson diagonalization with overlap
     ethr =  3.40E-03,  avg # of iterations =  2.0

     total cpu time spent up to now is       22.1 secs

     total energy              =    -678.34772272 Ry
     estimated scf accuracy    <      25.66910241 Ry

     total magnetization       =     0.90 Bohr mag/cell
     absolute magnetization    =     9.12 Bohr mag/cell

     iteration #  8     ecut=    60.00 Ry     beta= 0.70
     Davidson diagonalization with overlap
     ethr =  3.40E-03,  avg # of iterations =  2.0

     total cpu time spent up to now is       24.8 secs

     total energy              =    -678.77980482 Ry
     estimated scf accuracy    <       0.89383460 Ry

     total magnetization       =     0.97 Bohr mag/cell
     absolute magnetization    =     2.17 Bohr mag/cell

     iteration #  9     ecut=    60.00 Ry     beta= 0.70
     Davidson diagonalization with overlap
     ethr =  2.48E-03,  avg # of iterations =  1.0

     total cpu time spent up to now is       26.9 secs

     total energy              =    -678.76314262 Ry
     estimated scf accuracy    <       1.39900664 Ry

     total magnetization       =     0.97 Bohr mag/cell
     absolute magnetization    =     2.71 Bohr mag/cell

     iteration # 10     ecut=    60.00 Ry     beta= 0.70
     Davidson diagonalization with overlap
     ethr =  2.48E-03,  avg # of iterations =  1.0

     total cpu time spent up to now is       29.0 secs

     total energy              =    -678.76510588 Ry
     estimated scf accuracy    <       0.56882610 Ry

     total magnetization       =     0.97 Bohr mag/cell
     absolute magnetization    =     1.83 Bohr mag/cell

     iteration # 11     ecut=    60.00 Ry     beta= 0.70
     Davidson diagonalization with overlap
     ethr =  1.58E-03,  avg # of iterations =  1.0

     total cpu time spent up to now is       31.1 secs

     total energy              =    -678.77272886 Ry
     estimated scf accuracy    <       0.33262653 Ry

     total magnetization       =     0.92 Bohr mag/cell
     absolute magnetization    =     1.67 Bohr mag/cell

     iteration # 12     ecut=    60.00 Ry     beta= 0.70
     Davidson diagonalization with overlap
     ethr =  9.24E-04,  avg # of iterations =  1.0

     total cpu time spent up to now is       33.2 secs

     total energy              =    -678.76249354 Ry
     estimated scf accuracy    <       0.27216836 Ry

     total magnetization       =     0.92 Bohr mag/cell
     absolute magnetization    =     1.59 Bohr mag/cell

     iteration # 13     ecut=    60.00 Ry     beta= 0.70
     Davidson diagonalization with overlap
     ethr =  7.56E-04,  avg # of iterations =  1.0

     total cpu time spent up to now is       35.3 secs

     total energy              =    -678.76382401 Ry
     estimated scf accuracy    <       0.08896142 Ry

     total magnetization       =     0.91 Bohr mag/cell
     absolute magnetization    =     1.16 Bohr mag/cell

     iteration # 14     ecut=    60.00 Ry     beta= 0.70
     Davidson diagonalization with overlap
     ethr =  2.47E-04,  avg # of iterations =  2.0

     total cpu time spent up to now is       37.9 secs

     total energy              =    -678.79259253 Ry
     estimated scf accuracy    <       0.36406315 Ry

     total magnetization       =     0.97 Bohr mag/cell
     absolute magnetization    =     1.69 Bohr mag/cell

     iteration # 15     ecut=    60.00 Ry     beta= 0.70
     Davidson diagonalization with overlap
     ethr =  2.47E-04,  avg # of iterations =  2.0

     total cpu time spent up to now is       40.6 secs

     total energy              =    -678.78887144 Ry
     estimated scf accuracy    <       2.55111645 Ry

     total magnetization       =     0.87 Bohr mag/cell
     absolute magnetization    =     3.14 Bohr mag/cell

     iteration # 16     ecut=    60.00 Ry     beta= 0.70
     Davidson diagonalization with overlap
     ethr =  2.47E-04,  avg # of iterations =  1.6

     total cpu time spent up to now is       42.9 secs

     total energy              =    -678.77148732 Ry
     estimated scf accuracy    <       1.50528950 Ry

     total magnetization       =     0.95 Bohr mag/cell
     absolute magnetization    =     2.57 Bohr mag/cell

     iteration # 17     ecut=    60.00 Ry     beta= 0.70
     Davidson diagonalization with overlap
     ethr =  2.47E-04,  avg # of iterations =  2.0

     total cpu time spent up to now is       45.6 secs

     total energy              =    -678.78971584 Ry
     estimated scf accuracy    <       1.39292105 Ry

     total magnetization       =     1.00 Bohr mag/cell
     absolute magnetization    =     2.73 Bohr mag/cell

     iteration # 18     ecut=    60.00 Ry     beta= 0.70
     Davidson diagonalization with overlap
     ethr =  2.47E-04,  avg # of iterations =  2.0

     total cpu time spent up to now is       48.3 secs

     total energy              =    -678.79560201 Ry
     estimated scf accuracy    <       2.62499524 Ry

     total magnetization       =     0.92 Bohr mag/cell
     absolute magnetization    =     3.22 Bohr mag/cell

     iteration # 19     ecut=    60.00 Ry     beta= 0.70
     Davidson diagonalization with overlap
     ethr =  2.47E-04,  avg # of iterations =  2.0

     total cpu time spent up to now is       50.9 secs

     total energy              =    -678.80355014 Ry
     estimated scf accuracy    <       2.16669668 Ry

     total magnetization       =     0.92 Bohr mag/cell
     absolute magnetization    =     3.13 Bohr mag/cell

     iteration # 20     ecut=    60.00 Ry     beta= 0.70
     Davidson diagonalization with overlap
     ethr =  2.47E-04,  avg # of iterations =  1.9

     total cpu time spent up to now is       53.4 secs

     total energy              =    -678.81577244 Ry
     estimated scf accuracy    <       2.57644763 Ry

     total magnetization       =     0.89 Bohr mag/cell
     absolute magnetization    =     3.25 Bohr mag/cell

     iteration # 21     ecut=    60.00 Ry     beta= 0.70
     Davidson diagonalization with overlap
     ethr =  2.47E-04,  avg # of iterations =  1.5

     total cpu time spent up to now is       55.9 secs

     total energy              =    -678.81587618 Ry
     estimated scf accuracy    <       3.39922616 Ry

     total magnetization       =     0.92 Bohr mag/cell
     absolute magnetization    =     3.70 Bohr mag/cell

     iteration # 22     ecut=    60.00 Ry     beta= 0.70
     Davidson diagonalization with overlap
     ethr =  2.47E-04,  avg # of iterations =  1.0

     total cpu time spent up to now is       57.9 secs

     total energy              =    -678.85243210 Ry
     estimated scf accuracy    <       3.24796032 Ry

     total magnetization       =     0.91 Bohr mag/cell
     absolute magnetization    =     3.60 Bohr mag/cell

     iteration # 23     ecut=    60.00 Ry     beta= 0.70
     Davidson diagonalization with overlap
     ethr =  2.47E-04,  avg # of iterations =  2.3

     total cpu time spent up to now is       60.9 secs

     total energy              =    -678.62522705 Ry
     estimated scf accuracy    <      43.38354634 Ry

     total magnetization       =     0.84 Bohr mag/cell
     absolute magnetization    =    12.66 Bohr mag/cell

     iteration # 24     ecut=    60.00 Ry     beta= 0.70
     Davidson diagonalization with overlap
     ethr =  2.47E-04,  avg # of iterations =  3.3

     total cpu time spent up to now is       64.3 secs

     total energy              =    -678.42216537 Ry
     estimated scf accuracy    <      80.91909472 Ry

     total magnetization       =     0.59 Bohr mag/cell
     absolute magnetization    =    17.23 Bohr mag/cell

     iteration # 25     ecut=    60.00 Ry     beta= 0.70
     Davidson diagonalization with overlap
     ethr =  2.47E-04,  avg # of iterations =  2.4

     total cpu time spent up to now is       67.4 secs

     total energy              =    -679.07766296 Ry
     estimated scf accuracy    <      24.52516042 Ry

     total magnetization       =     0.46 Bohr mag/cell
     absolute magnetization    =     7.88 Bohr mag/cell

     iteration # 26     ecut=    60.00 Ry     beta= 0.70
     Davidson diagonalization with overlap
     ethr =  2.47E-04,  avg # of iterations =  2.1

     total cpu time spent up to now is       70.3 secs

     total energy              =    -678.86892040 Ry
     estimated scf accuracy    <      33.78204106 Ry

     total magnetization       =     0.47 Bohr mag/cell
     absolute magnetization    =    10.72 Bohr mag/cell

     iteration # 27     ecut=    60.00 Ry     beta= 0.70
     Davidson diagonalization with overlap
     ethr =  2.47E-04,  avg # of iterations =  2.0

     total cpu time spent up to now is       73.2 secs

     total energy              =    -679.05819653 Ry
     estimated scf accuracy    <      28.84560764 Ry

     total magnetization       =     0.79 Bohr mag/cell
     absolute magnetization    =     9.08 Bohr mag/cell

     iteration # 28     ecut=    60.00 Ry     beta= 0.70
     Davidson diagonalization with overlap
     ethr =  2.47E-04,  avg # of iterations =  2.1

     total cpu time spent up to now is       76.0 secs

     total energy              =    -678.85379603 Ry
     estimated scf accuracy    <      34.01116746 Ry

     total magnetization       =     0.79 Bohr mag/cell
     absolute magnetization    =    10.99 Bohr mag/cell

     iteration # 29     ecut=    60.00 Ry     beta= 0.70
     Davidson diagonalization with overlap
     ethr =  2.47E-04,  avg # of iterations =  2.0

     total cpu time spent up to now is       78.9 secs

     total energy              =    -678.60237612 Ry
     estimated scf accuracy    <      29.64044991 Ry

     total magnetization       =     0.69 Bohr mag/cell
     absolute magnetization    =     9.28 Bohr mag/cell

     iteration # 30     ecut=    60.00 Ry     beta= 0.70
     Davidson diagonalization with overlap
     ethr =  2.47E-04,  avg # of iterations =  2.0

     total cpu time spent up to now is       81.7 secs

     total energy              =    -678.69154417 Ry
     estimated scf accuracy    <       6.05367841 Ry

     total magnetization       =     0.81 Bohr mag/cell
     absolute magnetization    =     3.91 Bohr mag/cell

     iteration # 31     ecut=    60.00 Ry     beta= 0.70
     Davidson diagonalization with overlap
     ethr =  2.47E-04,  avg # of iterations =  2.1

     negative rho (up, down):  5.648E-04 1.105E-02

     total cpu time spent up to now is       84.7 secs

     total energy              =    -679.65191538 Ry
     estimated scf accuracy    <       5.77820261 Ry

     total magnetization       =     0.82 Bohr mag/cell
     absolute magnetization    =     4.70 Bohr mag/cell

     iteration # 32     ecut=    60.00 Ry     beta= 0.70
     Davidson diagonalization with overlap
     ethr =  2.47E-04,  avg # of iterations =  4.2

     negative rho (up, down):  6.495E-03 6.946E-03

     total cpu time spent up to now is       88.9 secs

     total energy              =    -677.15442713 Ry
     estimated scf accuracy    <     339.04063688 Ry

     total magnetization       =     0.78 Bohr mag/cell
     absolute magnetization    =    36.38 Bohr mag/cell

     iteration # 33     ecut=    60.00 Ry     beta= 0.70
     Davidson diagonalization with overlap
     ethr =  2.47E-04,  avg # of iterations =  4.7

     total cpu time spent up to now is       93.3 secs

     total energy              =    -672.64843542 Ry
     estimated scf accuracy    <     556.19108373 Ry

     total magnetization       =     0.51 Bohr mag/cell
     absolute magnetization    =    46.92 Bohr mag/cell

     iteration # 34     ecut=    60.00 Ry     beta= 0.70
     Davidson diagonalization with overlap
     ethr =  2.47E-04,  avg # of iterations =  4.1

     total cpu time spent up to now is       97.5 secs

     total energy              =    -679.04936233 Ry
     estimated scf accuracy    <      35.39943815 Ry

     total magnetization       =     0.47 Bohr mag/cell
     absolute magnetization    =     9.58 Bohr mag/cell

     iteration # 35     ecut=    60.00 Ry     beta= 0.70
     Davidson diagonalization with overlap
     ethr =  2.47E-04,  avg # of iterations =  2.8

     total cpu time spent up to now is      100.7 secs

     total energy              =    -678.77286574 Ry
     estimated scf accuracy    <      67.99153741 Ry

     total magnetization       =     0.37 Bohr mag/cell
     absolute magnetization    =    15.67 Bohr mag/cell

     iteration # 36     ecut=    60.00 Ry     beta= 0.70
     Davidson diagonalization with overlap
     ethr =  2.47E-04,  avg # of iterations =  2.9

     total cpu time spent up to now is      104.1 secs

     total energy              =    -679.46737202 Ry
     estimated scf accuracy    <      73.92810967 Ry

     total magnetization       =     0.48 Bohr mag/cell
     absolute magnetization    =    16.04 Bohr mag/cell

     iteration # 37     ecut=    60.00 Ry     beta= 0.70
     Davidson diagonalization with overlap
     ethr =  2.47E-04,  avg # of iterations =  2.0

     negative rho (up, down):  0.000E+00 6.375E-05

     total cpu time spent up to now is      106.9 secs

     total energy              =    -679.79651472 Ry
     estimated scf accuracy    <      64.15046156 Ry

     total magnetization       =     0.70 Bohr mag/cell
     absolute magnetization    =    15.54 Bohr mag/cell

     iteration # 38     ecut=    60.00 Ry     beta= 0.70
     Davidson diagonalization with overlap
     ethr =  2.47E-04,  avg # of iterations =  2.2

     total cpu time spent up to now is      109.9 secs

     total energy              =    -679.31363038 Ry
     estimated scf accuracy    <     110.63693124 Ry

     total magnetization       =     0.36 Bohr mag/cell
     absolute magnetization    =    20.11 Bohr mag/cell

     iteration # 39     ecut=    60.00 Ry     beta= 0.70
     Davidson diagonalization with overlap
     ethr =  2.47E-04,  avg # of iterations =  2.0

     total cpu time spent up to now is      112.8 secs

     total energy              =    -679.39218518 Ry
     estimated scf accuracy    <      69.73234570 Ry

     total magnetization       =     0.63 Bohr mag/cell
     absolute magnetization    =    16.25 Bohr mag/cell

     iteration # 40     ecut=    60.00 Ry     beta= 0.70
     Davidson diagonalization with overlap
     ethr =  2.47E-04,  avg # of iterations =  2.0

     negative rho (up, down):  1.421E-01 1.213E-01

     total cpu time spent up to now is      115.7 secs

     total energy              =    -682.41294525 Ry
     estimated scf accuracy    <      61.40286113 Ry

     total magnetization       =     0.59 Bohr mag/cell
     absolute magnetization    =    14.89 Bohr mag/cell

     iteration # 41     ecut=    60.00 Ry     beta= 0.70
     Davidson diagonalization with overlap
     ethr =  2.47E-04,  avg # of iterations =  6.0

     negative rho (up, down):  3.638E-01 2.202E-01

     total cpu time spent up to now is      121.0 secs

     total energy              =    -732.67392486 Ry
     estimated scf accuracy    <    1329.34901005 Ry

     total magnetization       =     0.07 Bohr mag/cell
     absolute magnetization    =    57.57 Bohr mag/cell

     iteration # 42     ecut=    60.00 Ry     beta= 0.70
     Davidson diagonalization with overlap
     ethr =  2.47E-04,  avg # of iterations =  6.0

     negative rho (up, down):  3.403E-01 2.676E-01

     total cpu time spent up to now is      126.5 secs

     total energy              =    -749.56588909 Ry
     estimated scf accuracy    <    2173.01867858 Ry

     total magnetization       =     0.07 Bohr mag/cell
     absolute magnetization    =    70.93 Bohr mag/cell

     iteration # 43     ecut=    60.00 Ry     beta= 0.70
     Davidson diagonalization with overlap
     ethr =  2.47E-04,  avg # of iterations =  4.0

     negative rho (up, down):  2.695E-01 1.512E-01

     total cpu time spent up to now is      130.6 secs

     total energy              =    -680.85682905 Ry
     estimated scf accuracy    <    2204.34161907 Ry

     total magnetization       =    -0.14 Bohr mag/cell
     absolute magnetization    =    67.75 Bohr mag/cell

     iteration # 44     ecut=    60.00 Ry     beta= 0.70
     Davidson diagonalization with overlap
     ethr =  2.47E-04,  avg # of iterations =  7.2

     negative rho (up, down):  3.383E-01 6.064E-01

     total cpu time spent up to now is      137.0 secs

     total energy              =    -708.88474440 Ry
     estimated scf accuracy    <    1670.28272764 Ry

     total magnetization       =     0.19 Bohr mag/cell
     absolute magnetization    =    64.09 Bohr mag/cell

     iteration # 45     ecut=    60.00 Ry     beta= 0.70
     Davidson diagonalization with overlap
     ethr =  2.47E-04,  avg # of iterations =  8.5

     negative rho (up, down):  1.667E-01 7.043E-01

     total cpu time spent up to now is      144.2 secs

     total energy              =    -749.32221239 Ry
     estimated scf accuracy    <    2709.70332570 Ry

     total magnetization       =    -0.00 Bohr mag/cell
     absolute magnetization    =    68.28 Bohr mag/cell

     iteration # 46     ecut=    60.00 Ry     beta= 0.70
     Davidson diagonalization with overlap
     ethr =  2.47E-04,  avg # of iterations =  4.9

     negative rho (up, down):  1.515E-01 2.149E-01

     total cpu time spent up to now is      149.0 secs

     total energy              =    -679.94233974 Ry
     estimated scf accuracy    <    2367.28444583 Ry

     total magnetization       =     0.16 Bohr mag/cell
     absolute magnetization    =    81.08 Bohr mag/cell

     iteration # 47     ecut=    60.00 Ry     beta= 0.70
     Davidson diagonalization with overlap
     ethr =  2.47E-04,  avg # of iterations =  6.6

     negative rho (up, down):  2.566E-01 7.596E-02

     total cpu time spent up to now is      155.1 secs

     total energy              =    -661.34066452 Ry
     estimated scf accuracy    <    1562.95693716 Ry

     total magnetization       =     0.14 Bohr mag/cell
     absolute magnetization    =    65.99 Bohr mag/cell

     iteration # 48     ecut=    60.00 Ry     beta= 0.70
     Davidson diagonalization with overlap
     ethr =  2.47E-04,  avg # of iterations =  7.7

     negative rho (up, down):  2.586E-02 0.000E+00

     total cpu time spent up to now is      161.6 secs

     total energy              =    -661.64873942 Ry
     estimated scf accuracy    <    1550.89728915 Ry

     total magnetization       =    -0.28 Bohr mag/cell
     absolute magnetization    =    75.07 Bohr mag/cell

     iteration # 49     ecut=    60.00 Ry     beta= 0.70
     Davidson diagonalization with overlap
     ethr =  2.47E-04,  avg # of iterations =  5.4

     negative rho (up, down):  1.750E+00 2.452E+00

     total cpu time spent up to now is      166.9 secs

     total energy              =    -720.45884123 Ry
     estimated scf accuracy    <     546.37161464 Ry

     total magnetization       =    -0.11 Bohr mag/cell
     absolute magnetization    =    46.23 Bohr mag/cell

     iteration # 50     ecut=    60.00 Ry     beta= 0.70
     Davidson diagonalization with overlap
     ethr =  2.47E-04,  avg # of iterations = 10.8

     negative rho (up, down):  3.047E+00 3.638E+00

     total cpu time spent up to now is      175.9 secs

     total energy              =    -694.70399056 Ry
     estimated scf accuracy    <    3507.48137061 Ry

     total magnetization       =    -0.08 Bohr mag/cell
     absolute magnetization    =    76.27 Bohr mag/cell

     iteration # 51     ecut=    60.00 Ry     beta= 0.70
     Davidson diagonalization with overlap
     ethr =  2.47E-04,  avg # of iterations = 11.8

     negative rho (up, down):  3.959E+00 4.041E+00

     total cpu time spent up to now is      186.1 secs

     total energy              =    -725.42468684 Ry
     estimated scf accuracy    <    3186.20009354 Ry

     total magnetization       =     0.12 Bohr mag/cell
     absolute magnetization    =    83.65 Bohr mag/cell

     iteration # 52     ecut=    60.00 Ry     beta= 0.70
     Davidson diagonalization with overlap
     c_bands:  1 eigenvalues not converged
     ethr =  2.47E-04,  avg # of iterations = 11.2

     negative rho (up, down):  5.434E+00 6.365E+00

     total cpu time spent up to now is      195.1 secs

     total energy              =    -801.23393620 Ry
     estimated scf accuracy    <    2988.42829118 Ry

     total magnetization       =    -0.04 Bohr mag/cell
     absolute magnetization    =    93.90 Bohr mag/cell

     iteration # 53     ecut=    60.00 Ry     beta= 0.70
     Davidson diagonalization with overlap
     ethr =  2.47E-04,  avg # of iterations = 12.9

     negative rho (up, down):  3.878E+00 4.183E+00

     total cpu time spent up to now is      205.9 secs

     total energy              =    -646.87544724 Ry
     estimated scf accuracy    <    3431.98589014 Ry

     total magnetization       =    -0.11 Bohr mag/cell
     absolute magnetization    =    76.69 Bohr mag/cell

     iteration # 54     ecut=    60.00 Ry     beta= 0.70
     Davidson diagonalization with overlap
     ethr =  2.47E-04,  avg # of iterations = 11.9

     negative rho (up, down):  4.197E+00 5.109E+00

     total cpu time spent up to now is      215.7 secs

     total energy              =    -651.12372389 Ry
     estimated scf accuracy    <    2790.49108825 Ry

     total magnetization       =     0.02 Bohr mag/cell
     absolute magnetization    =    72.24 Bohr mag/cell

     iteration # 55     ecut=    60.00 Ry     beta= 0.70
     Davidson diagonalization with overlap
     c_bands:  1 eigenvalues not converged
     ethr =  2.47E-04,  avg # of iterations = 11.5

     negative rho (up, down):  5.855E+00 5.833E+00

     total cpu time spent up to now is      225.5 secs

     total energy              =    -765.65428034 Ry
     estimated scf accuracy    <    2962.65534077 Ry

     total magnetization       =     0.05 Bohr mag/cell
     absolute magnetization    =    88.35 Bohr mag/cell

     iteration # 56     ecut=    60.00 Ry     beta= 0.70
     Davidson diagonalization with overlap
     ethr =  2.47E-04,  avg # of iterations =  7.9

     negative rho (up, down):  3.494E+00 1.133E+00

     total cpu time spent up to now is      232.5 secs

     total energy              =    -825.05038433 Ry
     estimated scf accuracy    <    2283.43459947 Ry

     total magnetization       =     0.21 Bohr mag/cell
     absolute magnetization    =   113.48 Bohr mag/cell

     iteration # 57     ecut=    60.00 Ry     beta= 0.70
     Davidson diagonalization with overlap
     c_bands:  1 eigenvalues not converged
     ethr =  2.47E-04,  avg # of iterations = 10.5

     negative rho (up, down):  2.385E+00 3.038E+00

     total cpu time spent up to now is      241.6 secs

     total energy              =    -606.32735803 Ry
     estimated scf accuracy    <    3608.35201625 Ry

     total magnetization       =     0.11 Bohr mag/cell
     absolute magnetization    =    65.80 Bohr mag/cell

     iteration # 58     ecut=    60.00 Ry     beta= 0.70
     Davidson diagonalization with overlap
     ethr =  2.47E-04,  avg # of iterations = 10.4

     negative rho (up, down):  7.223E+00 5.779E+00

     total cpu time spent up to now is      250.5 secs

     total energy              =    -656.95929462 Ry
     estimated scf accuracy    <    2496.01511389 Ry

     total magnetization       =    -0.14 Bohr mag/cell
     absolute magnetization    =   112.80 Bohr mag/cell

     iteration # 59     ecut=    60.00 Ry     beta= 0.70
     Davidson diagonalization with overlap
     ethr =  2.47E-04,  avg # of iterations = 13.0

     negative rho (up, down):  6.221E+00 7.166E+00

     total cpu time spent up to now is      260.6 secs

     total energy              =    -567.74600822 Ry
     estimated scf accuracy    <    3296.88306381 Ry

     total magnetization       =    -0.19 Bohr mag/cell
     absolute magnetization    =    81.44 Bohr mag/cell

     iteration # 60     ecut=    60.00 Ry     beta= 0.70
     Davidson diagonalization with overlap
     c_bands:  1 eigenvalues not converged
     c_bands:  1 eigenvalues not converged
     c_bands:  1 eigenvalues not converged
     c_bands:  1 eigenvalues not converged
     c_bands:  1 eigenvalues not converged
     c_bands:  1 eigenvalues not converged
     c_bands:  1 eigenvalues not converged
     ethr =  2.47E-04,  avg # of iterations = 14.3

     negative rho (up, down):  6.432E+00 5.981E+00

     total cpu time spent up to now is      271.6 secs

     total energy              =    -630.44086210 Ry
     estimated scf accuracy    <    3308.80673790 Ry

     total magnetization       =    -0.07 Bohr mag/cell
     absolute magnetization    =    68.56 Bohr mag/cell

     iteration # 61     ecut=    60.00 Ry     beta= 0.70
     Davidson diagonalization with overlap
     ethr =  2.47E-04,  avg # of iterations = 10.4

     negative rho (up, down):  4.442E+00 3.966E+00

     total cpu time spent up to now is      281.0 secs

     total energy              =    -723.48115873 Ry
     estimated scf accuracy    <    2203.84976823 Ry

     total magnetization       =     0.17 Bohr mag/cell
     absolute magnetization    =   119.79 Bohr mag/cell

     iteration # 62     ecut=    60.00 Ry     beta= 0.70
     Davidson diagonalization with overlap
     ethr =  2.47E-04,  avg # of iterations =  9.2

     negative rho (up, down):  5.018E+00 1.052E+01

     total cpu time spent up to now is      288.9 secs

     total energy              =    -876.84700247 Ry
     estimated scf accuracy    <    2463.36750792 Ry

     total magnetization       =     0.07 Bohr mag/cell
     absolute magnetization    =   122.73 Bohr mag/cell

     iteration # 63     ecut=    60.00 Ry     beta= 0.70
     Davidson diagonalization with overlap
     c_bands:  1 eigenvalues not converged
     c_bands:  1 eigenvalues not converged
     c_bands:  1 eigenvalues not converged
     c_bands:  1 eigenvalues not converged
     c_bands:  1 eigenvalues not converged
     c_bands:  1 eigenvalues not converged
     c_bands:  1 eigenvalues not converged
     c_bands:  1 eigenvalues not converged
     ethr =  2.47E-04,  avg # of iterations = 14.1

     negative rho (up, down):  7.746E+00 9.807E+00

     total cpu time spent up to now is      299.6 secs

     total energy              =    -310.10432463 Ry
     estimated scf accuracy    <    4526.17951156 Ry

     total magnetization       =     0.12 Bohr mag/cell
     absolute magnetization    =    55.13 Bohr mag/cell

     iteration # 64     ecut=    60.00 Ry     beta= 0.70
     Davidson diagonalization with overlap
     c_bands:  1 eigenvalues not converged
     c_bands:  1 eigenvalues not converged
     c_bands:  1 eigenvalues not converged
     c_bands:  1 eigenvalues not converged
     c_bands:  1 eigenvalues not converged
     c_bands:  1 eigenvalues not converged
     c_bands:  1 eigenvalues not converged
     c_bands:  1 eigenvalues not converged
     c_bands:  1 eigenvalues not converged
     c_bands:  1 eigenvalues not converged
     c_bands:  1 eigenvalues not converged
     c_bands:  1 eigenvalues not converged
     c_bands:  1 eigenvalues not converged
     c_bands:  1 eigenvalues not converged
     c_bands:  1 eigenvalues not converged
     c_bands:  1 eigenvalues not converged
     c_bands:  1 eigenvalues not converged
     c_bands:  1 eigenvalues not converged
     c_bands:  1 eigenvalues not converged
     c_bands:  1 eigenvalues not converged
     c_bands:  1 eigenvalues not converged
     c_bands:  1 eigenvalues not converged
     c_bands:  1 eigenvalues not converged
     c_bands:  1 eigenvalues not converged
     c_bands:  1 eigenvalues not converged
     c_bands:  1 eigenvalues not converged
     c_bands:  1 eigenvalues not converged
     c_bands:  2 eigenvalues not converged
     c_bands:  1 eigenvalues not converged
     c_bands:  1 eigenvalues not converged
     c_bands:  1 eigenvalues not converged
     c_bands:  1 eigenvalues not converged
     c_bands:  1 eigenvalues not converged
     c_bands:  1 eigenvalues not converged
     c_bands:  1 eigenvalues not converged
     c_bands:  1 eigenvalues not converged
     c_bands:  1 eigenvalues not converged
     c_bands:  1 eigenvalues not converged
     c_bands:  1 eigenvalues not converged
     c_bands:  1 eigenvalues not converged
     c_bands:  1 eigenvalues not converged
     ethr =  2.47E-04,  avg # of iterations = 17.7

     negative rho (up, down):  7.111E+00 6.956E+00

     total cpu time spent up to now is      314.3 secs

     total energy              =    -556.06764022 Ry
     estimated scf accuracy    <    5207.37125272 Ry

     total magnetization       =    -0.13 Bohr mag/cell
     absolute magnetization    =    40.03 Bohr mag/cell

     iteration # 65     ecut=    60.00 Ry     beta= 0.70
     Davidson diagonalization with overlap
     c_bands:  1 eigenvalues not converged
     c_bands:  1 eigenvalues not converged
     c_bands:  1 eigenvalues not converged
     ethr =  2.47E-04,  avg # of iterations = 14.2

     negative rho (up, down):  6.720E+00 6.538E+00

     total cpu time spent up to now is      326.6 secs

     total energy              =    -665.13048709 Ry
     estimated scf accuracy    <    3188.05787708 Ry

     total magnetization       =     0.21 Bohr mag/cell
     absolute magnetization    =    75.33 Bohr mag/cell

     iteration # 66     ecut=    60.00 Ry     beta= 0.70
     Davidson diagonalization with overlap
     ethr =  2.47E-04,  avg # of iterations = 10.1

     negative rho (up, down):  1.022E+01 5.835E+00

     total cpu time spent up to now is      335.4 secs

     total energy              =    -802.03643606 Ry
     estimated scf accuracy    <    2089.25546536 Ry

     total magnetization       =     0.13 Bohr mag/cell
     absolute magnetization    =   126.08 Bohr mag/cell

     iteration # 67     ecut=    60.00 Ry     beta= 0.70
     Davidson diagonalization with overlap
     ethr =  2.47E-04,  avg # of iterations = 11.2

     negative rho (up, down):  7.448E+00 7.698E+00

     total cpu time spent up to now is      345.0 secs

     total energy              =    -614.89471215 Ry
     estimated scf accuracy    <    3496.99664944 Ry

     total magnetization       =     0.14 Bohr mag/cell
     absolute magnetization    =    59.86 Bohr mag/cell

     iteration # 68     ecut=    60.00 Ry     beta= 0.70
     Davidson diagonalization with overlap
     c_bands:  1 eigenvalues not converged
     c_bands:  1 eigenvalues not converged
     ethr =  2.47E-04,  avg # of iterations =  9.9

     negative rho (up, down):  5.609E+00 5.587E+00

     total cpu time spent up to now is      354.6 secs

     total energy              =    -747.38296830 Ry
     estimated scf accuracy    <    1943.11608140 Ry

     total magnetization       =    -0.08 Bohr mag/cell
     absolute magnetization    =   124.49 Bohr mag/cell

     iteration # 69     ecut=    60.00 Ry     beta= 0.70
     Davidson diagonalization with overlap
     ethr =  2.47E-04,  avg # of iterations = 10.7

     negative rho (up, down):  5.073E+00 6.068E+00

     total cpu time spent up to now is      363.8 secs

     total energy              =    -808.92742211 Ry
     estimated scf accuracy    <    2712.45108084 Ry

     total magnetization       =    -0.13 Bohr mag/cell
     absolute magnetization    =   106.46 Bohr mag/cell

     iteration # 70     ecut=    60.00 Ry     beta= 0.70
     Davidson diagonalization with overlap
     ethr =  2.47E-04,  avg # of iterations =  9.0

     negative rho (up, down):  7.694E+00 1.068E+01

     total cpu time spent up to now is      371.5 secs

     total energy              =    -697.76045067 Ry
     estimated scf accuracy    <    2529.53505536 Ry

     total magnetization       =    -0.14 Bohr mag/cell
     absolute magnetization    =   103.96 Bohr mag/cell

     iteration # 71     ecut=    60.00 Ry     beta= 0.70
     Davidson diagonalization with overlap
     c_bands:  1 eigenvalues not converged
     c_bands:  1 eigenvalues not converged
     c_bands:  1 eigenvalues not converged
     c_bands:  1 eigenvalues not converged
     c_bands:  1 eigenvalues not converged
     c_bands:  1 eigenvalues not converged
     c_bands:  1 eigenvalues not converged
     c_bands:  1 eigenvalues not converged
     c_bands:  1 eigenvalues not converged
     c_bands:  1 eigenvalues not converged
     c_bands:  1 eigenvalues not converged
     c_bands:  1 eigenvalues not converged
     c_bands:  1 eigenvalues not converged
     c_bands:  1 eigenvalues not converged
     c_bands:  1 eigenvalues not converged
     c_bands:  1 eigenvalues not converged
     c_bands:  1 eigenvalues not converged
     c_bands:  1 eigenvalues not converged
     c_bands:  1 eigenvalues not converged
     c_bands:  1 eigenvalues not converged
     c_bands:  1 eigenvalues not converged
     c_bands:  1 eigenvalues not converged
     c_bands:  1 eigenvalues not converged
     c_bands:  1 eigenvalues not converged
     c_bands:  2 eigenvalues not converged
     c_bands:  1 eigenvalues not converged
     c_bands:  3 eigenvalues not converged
     c_bands:  1 eigenvalues not converged
     c_bands:  2 eigenvalues not converged
     c_bands:  1 eigenvalues not converged
     c_bands:  1 eigenvalues not converged
     ethr =  2.47E-04,  avg # of iterations = 16.5

     negative rho (up, down):  7.350E+00 6.838E+00

     total cpu time spent up to now is      385.6 secs

     total energy              =    -517.33393625 Ry
     estimated scf accuracy    <    5326.60607649 Ry

     total magnetization       =     0.05 Bohr mag/cell
     absolute magnetization    =    28.93 Bohr mag/cell

     iteration # 72     ecut=    60.00 Ry     beta= 0.70
     Davidson diagonalization with overlap
     c_bands:  1 eigenvalues not converged
     ethr =  2.47E-04,  avg # of iterations = 11.5

     negative rho (up, down):  7.018E+00 1.109E+01

     total cpu time spent up to now is      395.8 secs

     total energy              =    -727.92585937 Ry
     estimated scf accuracy    <    1921.00562672 Ry

     total magnetization       =     0.24 Bohr mag/cell
     absolute magnetization    =   122.70 Bohr mag/cell

     iteration # 73     ecut=    60.00 Ry     beta= 0.70
     Davidson diagonalization with overlap
     c_bands:  1 eigenvalues not converged
     c_bands:  1 eigenvalues not converged
     c_bands:  1 eigenvalues not converged
     ethr =  2.47E-04,  avg # of iterations = 13.4

     negative rho (up, down):  7.941E+00 7.780E+00

     total cpu time spent up to now is      406.4 secs

     total energy              =    -483.91195328 Ry
     estimated scf accuracy    <    4264.60263818 Ry

     total magnetization       =    -0.10 Bohr mag/cell
     absolute magnetization    =    49.43 Bohr mag/cell

     iteration # 74     ecut=    60.00 Ry     beta= 0.70
     Davidson diagonalization with overlap
     ethr =  2.47E-04,  avg # of iterations = 11.2

     negative rho (up, down):  9.496E+00 1.071E+01

     total cpu time spent up to now is      416.0 secs

     total energy              =    -844.13129003 Ry
     estimated scf accuracy    <    1836.26454768 Ry

     total magnetization       =     0.13 Bohr mag/cell
     absolute magnetization    =   121.19 Bohr mag/cell

     iteration # 75     ecut=    60.00 Ry     beta= 0.70
     Davidson diagonalization with overlap
     c_bands:  1 eigenvalues not converged
     ethr =  2.47E-04,  avg # of iterations = 14.0

     negative rho (up, down):  7.769E+00 7.823E+00

     total cpu time spent up to now is      427.7 secs

     total energy              =    -570.66684889 Ry
     estimated scf accuracy    <    4015.78386668 Ry

     total magnetization       =     0.19 Bohr mag/cell
     absolute magnetization    =    61.79 Bohr mag/cell

     iteration # 76     ecut=    60.00 Ry     beta= 0.70
     Davidson diagonalization with overlap
     ethr =  2.47E-04,  avg # of iterations = 10.8

     negative rho (up, down):  1.275E+01 4.514E+00

     total cpu time spent up to now is      437.2 secs

     total energy              =    -791.91453275 Ry
     estimated scf accuracy    <    1766.55388048 Ry

     total magnetization       =     0.02 Bohr mag/cell
     absolute magnetization    =   126.15 Bohr mag/cell

     iteration # 77     ecut=    60.00 Ry     beta= 0.70
     Davidson diagonalization with overlap
     c_bands:  1 eigenvalues not converged
     c_bands:  1 eigenvalues not converged
     c_bands:  1 eigenvalues not converged
     c_bands:  1 eigenvalues not converged
     ethr =  2.47E-04,  avg # of iterations = 14.1

     negative rho (up, down):  7.650E+00 8.158E+00

     total cpu time spent up to now is      449.3 secs

     total energy              =    -465.66920420 Ry
     estimated scf accuracy    <    5238.35603453 Ry

     total magnetization       =     0.01 Bohr mag/cell
     absolute magnetization    =    26.56 Bohr mag/cell

     iteration # 78     ecut=    60.00 Ry     beta= 0.70
     Davidson diagonalization with overlap
     c_bands:  1 eigenvalues not converged
     ethr =  2.47E-04,  avg # of iterations = 11.1

     negative rho (up, down):  7.693E+00 7.943E+00

     total cpu time spent up to now is      459.5 secs

     total energy              =    -764.69193134 Ry
     estimated scf accuracy    <    1927.49472803 Ry

     total magnetization       =    -0.05 Bohr mag/cell
     absolute magnetization    =   122.10 Bohr mag/cell

     iteration # 79     ecut=    60.00 Ry     beta= 0.70
     Davidson diagonalization with overlap
     ethr =  2.47E-04,  avg # of iterations =  7.1

     negative rho (up, down):  9.428E+00 1.006E+01

     total cpu time spent up to now is      465.7 secs

     total energy              =    -795.24536835 Ry
     estimated scf accuracy    <    1877.61338739 Ry

     total magnetization       =    -0.23 Bohr mag/cell
     absolute magnetization    =   127.07 Bohr mag/cell

     iteration # 80     ecut=    60.00 Ry     beta= 0.70
     Davidson diagonalization with overlap
     ethr =  2.47E-04,  avg # of iterations =  9.0

     negative rho (up, down):  9.435E+00 1.045E+01

     total cpu time spent up to now is      473.4 secs

     total energy              =    -571.53159336 Ry
     estimated scf accuracy    <    2298.49591164 Ry

     total magnetization       =    -0.10 Bohr mag/cell
     absolute magnetization    =   101.32 Bohr mag/cell

     iteration # 81     ecut=    60.00 Ry     beta= 0.70
     Davidson diagonalization with overlap
     c_bands:  1 eigenvalues not converged
     ethr =  2.47E-04,  avg # of iterations = 12.5

     negative rho (up, down):  9.504E+00 9.312E+00

     total cpu time spent up to now is      484.0 secs

     total energy              =    -629.78972122 Ry
     estimated scf accuracy    <    2829.60954235 Ry

     total magnetization       =    -0.15 Bohr mag/cell
     absolute magnetization    =    87.16 Bohr mag/cell

     iteration # 82     ecut=    60.00 Ry     beta= 0.70
     Davidson diagonalization with overlap
     ethr =  2.47E-04,  avg # of iterations = 10.5

     negative rho (up, down):  1.042E+01 1.308E+01

     total cpu time spent up to now is      492.9 secs

     total energy              =    -779.15812081 Ry
     estimated scf accuracy    <    1526.52380065 Ry

     total magnetization       =     0.07 Bohr mag/cell
     absolute magnetization    =   129.93 Bohr mag/cell

     iteration # 83     ecut=    60.00 Ry     beta= 0.70
     Davidson diagonalization with overlap
     c_bands:  1 eigenvalues not converged
     c_bands:  1 eigenvalues not converged
     c_bands:  1 eigenvalues not converged
     ethr =  2.47E-04,  avg # of iterations = 11.2

     negative rho (up, down):  1.013E+01 9.719E+00

     total cpu time spent up to now is      502.2 secs

     total energy              =    -592.62809805 Ry
     estimated scf accuracy    <    3285.36491111 Ry

     total magnetization       =    -0.03 Bohr mag/cell
     absolute magnetization    =    76.42 Bohr mag/cell

     iteration # 84     ecut=    60.00 Ry     beta= 0.70
     Davidson diagonalization with overlap
     ethr =  2.47E-04,  avg # of iterations = 10.3

     negative rho (up, down):  1.440E+01 1.364E+01

     total cpu time spent up to now is      511.4 secs

     total energy              =    -791.12095738 Ry
     estimated scf accuracy    <    1438.59535340 Ry

     total magnetization       =    -0.04 Bohr mag/cell
     absolute magnetization    =   130.22 Bohr mag/cell

     iteration # 85     ecut=    60.00 Ry     beta= 0.70
     Davidson diagonalization with overlap
     c_bands:  1 eigenvalues not converged
     c_bands:  1 eigenvalues not converged
     c_bands:  1 eigenvalues not converged
     c_bands:  1 eigenvalues not converged
     c_bands:  1 eigenvalues not converged
     c_bands:  1 eigenvalues not converged
     ethr =  2.47E-04,  avg # of iterations = 14.3

     negative rho (up, down):  1.056E+01 1.057E+01

     total cpu time spent up to now is      523.3 secs

     total energy              =    -551.34336015 Ry
     estimated scf accuracy    <    4069.79336354 Ry

     total magnetization       =     0.27 Bohr mag/cell
     absolute magnetization    =    60.75 Bohr mag/cell

     iteration # 86     ecut=    60.00 Ry     beta= 0.70
     Davidson diagonalization with overlap
     c_bands:  1 eigenvalues not converged
     c_bands:  1 eigenvalues not converged
     c_bands:  1 eigenvalues not converged
     ethr =  2.47E-04,  avg # of iterations = 11.4

     negative rho (up, down):  1.742E+01 9.622E+00

     total cpu time spent up to now is      533.5 secs

     total energy              =    -763.08765768 Ry
     estimated scf accuracy    <    1607.83338445 Ry

     total magnetization       =    -0.02 Bohr mag/cell
     absolute magnetization    =   121.43 Bohr mag/cell

     iteration # 87     ecut=    60.00 Ry     beta= 0.70
     Davidson diagonalization with overlap
     c_bands:  1 eigenvalues not converged
     c_bands:  1 eigenvalues not converged
     c_bands:  1 eigenvalues not converged
     c_bands:  1 eigenvalues not converged
     ethr =  2.47E-04,  avg # of iterations = 13.2

     negative rho (up, down):  1.116E+01 1.146E+01

     total cpu time spent up to now is      544.5 secs

     total energy              =    -456.25082209 Ry
     estimated scf accuracy    <    5383.99942709 Ry

     total magnetization       =     0.59 Bohr mag/cell
     absolute magnetization    =    24.09 Bohr mag/cell

     iteration # 88     ecut=    60.00 Ry     beta= 0.70
     Davidson diagonalization with overlap
     ethr =  2.47E-04,  avg # of iterations = 10.7

     negative rho (up, down):  1.162E+01 1.143E+01

     total cpu time spent up to now is      554.3 secs

     total energy              =    -716.37048960 Ry
     estimated scf accuracy    <    1604.92608074 Ry

     total magnetization       =     0.21 Bohr mag/cell
     absolute magnetization    =   118.02 Bohr mag/cell

     iteration # 89     ecut=    60.00 Ry     beta= 0.70
     Davidson diagonalization with overlap
     ethr =  2.47E-04,  avg # of iterations =  7.5

     negative rho (up, down):  1.371E+01 1.547E+01

     total cpu time spent up to now is      560.9 secs

     total energy              =    -738.68462994 Ry
     estimated scf accuracy    <    1207.43003783 Ry

     total magnetization       =    -0.19 Bohr mag/cell
     absolute magnetization    =   130.28 Bohr mag/cell

     iteration # 90     ecut=    60.00 Ry     beta= 0.70
     Davidson diagonalization with overlap
     c_bands:  1 eigenvalues not converged
     ethr =  2.47E-04,  avg # of iterations = 11.3

     negative rho (up, down):  1.339E+01 1.462E+01

     total cpu time spent up to now is      570.3 secs

     total energy              =    -514.84338104 Ry
     estimated scf accuracy    <    2661.99629032 Ry

     total magnetization       =    -0.01 Bohr mag/cell
     absolute magnetization    =    87.10 Bohr mag/cell

     iteration # 91     ecut=    60.00 Ry     beta= 0.70
     Davidson diagonalization with overlap
     c_bands:  1 eigenvalues not converged
     c_bands:  1 eigenvalues not converged
     c_bands:  1 eigenvalues not converged
     c_bands:  1 eigenvalues not converged
     c_bands:  1 eigenvalues not converged
     c_bands:  1 eigenvalues not converged
     c_bands:  1 eigenvalues not converged
     c_bands:  1 eigenvalues not converged
     c_bands:  2 eigenvalues not converged
     c_bands:  1 eigenvalues not converged
     c_bands:  1 eigenvalues not converged
     c_bands:  1 eigenvalues not converged
     ethr =  2.47E-04,  avg # of iterations = 14.1

     negative rho (up, down):  1.283E+01 1.291E+01

     total cpu time spent up to now is      582.1 secs

     total energy              =    -526.40894347 Ry
     estimated scf accuracy    <    3920.66870208 Ry

     total magnetization       =    -0.17 Bohr mag/cell
     absolute magnetization    =    58.24 Bohr mag/cell

     iteration # 92     ecut=    60.00 Ry     beta= 0.70
     Davidson diagonalization with overlap
     ethr =  2.47E-04,  avg # of iterations = 10.8

     negative rho (up, down):  1.480E+01 1.599E+01

     total cpu time spent up to now is      591.2 secs

     total energy              =    -716.51004739 Ry
     estimated scf accuracy    <     995.38901420 Ry

     total magnetization       =    -0.02 Bohr mag/cell
     absolute magnetization    =   130.40 Bohr mag/cell

     iteration # 93     ecut=    60.00 Ry     beta= 0.70
     Davidson diagonalization with overlap
     ethr =  2.47E-04,  avg # of iterations =  7.5

     negative rho (up, down):  1.404E+01 1.448E+01

     total cpu time spent up to now is      597.7 secs

     total energy              =    -705.34312595 Ry
     estimated scf accuracy    <    1071.32666951 Ry

     total magnetization       =    -0.13 Bohr mag/cell
     absolute magnetization    =   117.44 Bohr mag/cell

     iteration # 94     ecut=    60.00 Ry     beta= 0.70
     Davidson diagonalization with overlap
     ethr =  2.47E-04,  avg # of iterations =  7.1

     negative rho (up, down):  1.353E+01 1.260E+01

     total cpu time spent up to now is      603.9 secs

     total energy              =    -699.95664235 Ry
     estimated scf accuracy    <     796.22537018 Ry

     total magnetization       =    -0.04 Bohr mag/cell
     absolute magnetization    =   128.92 Bohr mag/cell

     iteration # 95     ecut=    60.00 Ry     beta= 0.70
     Davidson diagonalization with overlap
     ethr =  2.47E-04,  avg # of iterations = 11.7

     negative rho (up, down):  1.466E+01 1.572E+01

     total cpu time spent up to now is      613.6 secs

     total energy              =    -548.96747170 Ry
     estimated scf accuracy    <    2712.81657493 Ry

     total magnetization       =     0.14 Bohr mag/cell
     absolute magnetization    =    85.37 Bohr mag/cell

     iteration # 96     ecut=    60.00 Ry     beta= 0.70
     Davidson diagonalization with overlap
     c_bands:  1 eigenvalues not converged
     ethr =  2.47E-04,  avg # of iterations = 10.9

     negative rho (up, down):  1.934E+01 1.336E+01

     total cpu time spent up to now is      623.4 secs

     total energy              =    -689.05950038 Ry
     estimated scf accuracy    <     834.20581429 Ry

     total magnetization       =    -0.08 Bohr mag/cell
     absolute magnetization    =   122.71 Bohr mag/cell

     iteration # 97     ecut=    60.00 Ry     beta= 0.70
     Davidson diagonalization with overlap
     ethr =  2.47E-04,  avg # of iterations = 10.9

     negative rho (up, down):  1.459E+01 1.551E+01

     total cpu time spent up to now is      632.5 secs

     total energy              =    -437.98773852 Ry
     estimated scf accuracy    <    4549.45528566 Ry

     total magnetization       =     0.76 Bohr mag/cell
     absolute magnetization    =    33.19 Bohr mag/cell

     iteration # 98     ecut=    60.00 Ry     beta= 0.70
     Davidson diagonalization with overlap
     ethr =  2.47E-04,  avg # of iterations = 10.5

     negative rho (up, down):  1.500E+01 1.556E+01

     total cpu time spent up to now is      642.0 secs

     total energy              =    -690.65239304 Ry
     estimated scf accuracy    <     975.78065756 Ry

     total magnetization       =     0.10 Bohr mag/cell
     absolute magnetization    =   120.22 Bohr mag/cell

     iteration # 99     ecut=    60.00 Ry     beta= 0.70
     Davidson diagonalization with overlap
     ethr =  2.47E-04,  avg # of iterations =  7.5

     negative rho (up, down):  1.854E+01 2.000E+01

     total cpu time spent up to now is      648.3 secs

     total energy              =    -686.74991831 Ry
     estimated scf accuracy    <     684.29430438 Ry

     total magnetization       =    -0.17 Bohr mag/cell
     absolute magnetization    =   129.81 Bohr mag/cell

     iteration #100     ecut=    60.00 Ry     beta= 0.70
     Davidson diagonalization with overlap
     ethr =  2.47E-04,  avg # of iterations =  9.3

     negative rho (up, down):  1.969E+01 2.045E+01

     total cpu time spent up to now is      656.5 secs

     total energy              =    -602.38362894 Ry
     estimated scf accuracy    <    1570.19677162 Ry

     total magnetization       =    -0.18 Bohr mag/cell
     absolute magnetization    =   103.43 Bohr mag/cell

     End of self-consistent calculation

     convergence NOT achieved after 100 iterations: stopping

     Writing config to output data dir ./out/pwscf.save/

     init_run     :      0.70s CPU      0.84s WALL (       1 calls)
     electrons    :    536.42s CPU    655.54s WALL (       1 calls)

     Called by init_run:
     wfcinit      :      0.57s CPU      0.68s WALL (       1 calls)
     potinit      :      0.02s CPU      0.02s WALL (       1 calls)
     hinit0       :      0.10s CPU      0.12s WALL (       1 calls)

     Called by electrons:
     c_bands      :    510.04s CPU    624.40s WALL (     100 calls)
     sum_band     :     25.32s CPU     29.92s WALL (     100 calls)
     v_of_rho     :      0.61s CPU      0.64s WALL (     101 calls)
     newd         :      0.32s CPU      0.34s WALL (     101 calls)
     mix_rho      :      0.07s CPU      0.13s WALL (     100 calls)

     Called by c_bands:
     init_us_2    :      0.93s CPU      1.17s WALL (   60903 calls)
     init_us_2:cp :      0.86s CPU      1.10s WALL (   60903 calls)
     cegterg      :    499.98s CPU    594.51s WALL (   30300 calls)

     Called by *egterg:
     cdiaghg      :    140.49s CPU    167.45s WALL (  247782 calls)
     h_psi        :    240.00s CPU    288.91s WALL (  248085 calls)
     s_psi        :     13.90s CPU     16.07s WALL (  248085 calls)
     g_psi        :      0.68s CPU      0.76s WALL (  217482 calls)

     Called by h_psi:
     h_psi:calbec :     16.14s CPU     19.29s WALL (  248085 calls)
     vloc_psi     :    208.81s CPU    251.98s WALL (  248085 calls)
     add_vuspsi   :     13.91s CPU     16.31s WALL (  248085 calls)

     General routines
     calbec       :     18.51s CPU     22.15s WALL (  278385 calls)
     fft          :      0.25s CPU      0.29s WALL (    2523 calls)
     ffts         :      0.02s CPU      0.02s WALL (     402 calls)
     fftw         :    216.93s CPU    261.51s WALL ( 7823134 calls)
     interpolate  :      0.03s CPU      0.03s WALL (     202 calls)
     davcio       :      0.00s CPU      0.00s WALL (      18 calls)

     Parallel routines

     PWSCF        :   8m57.27s CPU  10m56.58s WALL


   This run was terminated on:  15: 3:16  23Jun2023            

=------------------------------------------------------------------------------=
   JOB DONE.
=------------------------------------------------------------------------------=
