Ignoring PCI device with non-16bit domain.
Pass --enable-32bits-pci-domain to configure to support such devices
(warning: it would break the library ABI, don't enable unless really needed).

     Program PWSCF v.7.1 starts on 18Jun2023 at 11:38:16 

     This program is part of the open-source Quantum ESPRESSO suite
     for quantum simulation of materials; please cite
         "P. Giannozzi et al., J. Phys.:Condens. Matter 21 395502 (2009);
         "P. Giannozzi et al., J. Phys.:Condens. Matter 29 465901 (2017);
         "P. Giannozzi et al., J. Chem. Phys. 152 154105 (2020);
          URL http://www.quantum-espresso.org", 
     in publications or presentations arising from this work. More details at
     http://www.quantum-espresso.org/quote

     Parallel version (MPI), running on    24 processors

     MPI processes distributed on     1 nodes
     9631 MiB available memory on the printing compute node when the environment starts

     Reading input from Ni_monoclinic_bcm_atoms.in
Warning: card &CELL ignored
Warning: card   CELL_DOFREE  =  "ALL", ignored
Warning: card   CELL_DYNAMICS  =  "BFGS", ignored
Warning: card / ignored

     Current dimensions of program PWSCF are:
     Max number of different atomic species (ntypx) = 10
     Max number of k-points (npk) =  40000
     Max angular momentum in pseudopotentials (lmaxx) =  4

     K-points division:     npool     =       2
     R & G space division:  proc/nbgrp/npool/nimage =      12
     Subspace diagonalization in iterative solution of the eigenvalue problem:
     a serial algorithm will be used


     Parallelization info
     --------------------
     sticks:   dense  smooth     PW     G-vecs:    dense   smooth      PW
     Min          11      11      3                  140      140      30
     Max          12      12      4                  143      143      36
     Sum         133     133     47                 1693     1693     393

     Using Slab Decomposition



     bravais-lattice index     =            0
     lattice parameter (alat)  =       2.2434  a.u.
     unit-cell volume          =      17.3704 (a.u.)^3
     number of atoms/cell      =            1
     number of atomic types    =            1
     number of electrons       =        18.00
     number of Kohn-Sham states=           13
     kinetic-energy cutoff     =      80.0000  Ry
     charge density cutoff     =     320.0000  Ry
     scf convergence threshold =      1.0E-09
     mixing beta               =       0.7000
     number of iterations used =            8  TF        mixing
     Exchange-correlation= PBE
                           (   1   4   3   4   0   0   0)

     celldm(1)=   2.243407  celldm(2)=   0.000000  celldm(3)=   0.000000
     celldm(4)=   0.000000  celldm(5)=   0.000000  celldm(6)=   0.000000

     crystal axes: (cart. coord. in units of alat)
               a(1) = (   1.000000   0.000000   0.000000 )  
               a(2) = (   0.180329   0.983606   0.000000 )  
               a(3) = (  -0.437333  -0.364444   1.564098 )  

     reciprocal axes: (cart. coord. in units 2 pi/alat)
               b(1) = (  1.000000 -0.183334  0.236889 )  
               b(2) = ( -0.000000  1.016667  0.236889 )  
               b(3) = (  0.000000  0.000000  0.639346 )  


     PseudoPot. # 1 for Ni read from file:
     /home/jmgoff/work/automation/qe_pseudos/Ni.upf
     MD5 check sum: 2b0a79d100e227970886d6963e34175b
     Pseudo is Norm-conserving + core correction, Zval = 18.0
     Generated using ONCVPSP code by D. R. Hamann
     Using radial grid of 1372 points,  6 beta functions with: 
                l(1) =   0
                l(2) =   0
                l(3) =   1
                l(4) =   1
                l(5) =   2
                l(6) =   2

     atomic species   valence    mass     pseudopotential
        Ni            18.00    58.69340     Ni( 1.00)

     Starting magnetic structure 
     atomic species   magnetization
        Ni           0.700

     No symmetry found



   Cartesian axes

     site n.     atom                  positions (alat units)
         1           Ni  tau(   1) = (   0.0000000   0.0000000   0.0000000  )

     number of k points=   506  Marzari-Vanderbilt smearing, width (Ry)=  0.0100

     Number of k-points >= 100: set verbosity='high' to print them.

     Dense  grid:     1693 G-vectors     FFT dimensions: (  15,  15,  24)

     Estimated max dynamical RAM per process >       3.35 MB

     Estimated total dynamical RAM >      79.53 MB
     Generating pointlists ...
     new r_m :   0.4125 (alat units)  0.9254 (a.u.) for type    1

     Initial potential from superposition of free atoms

     starting charge      17.9998, renormalised to      18.0000
     Starting wfcs are   10 randomized atomic wfcs +    3 random wfcs

     total cpu time spent up to now is        0.4 secs

     Self-consistent Calculation

     iteration #  1     ecut=    80.00 Ry     beta= 0.70
     Davidson diagonalization with overlap
     ethr =  1.00E-02,  avg # of iterations =  5.6

     total cpu time spent up to now is        2.5 secs

     total energy              =    -328.20475041 Ry
     estimated scf accuracy    <       5.73255845 Ry

     total magnetization       =     1.07 Bohr mag/cell
     absolute magnetization    =     1.07 Bohr mag/cell

     iteration #  2     ecut=    80.00 Ry     beta= 0.70
     Davidson diagonalization with overlap
     ethr =  1.00E-02,  avg # of iterations =  1.0

     total cpu time spent up to now is        3.5 secs

     total energy              =    -328.63560665 Ry
     estimated scf accuracy    <       0.82881140 Ry

     total magnetization       =     0.34 Bohr mag/cell
     absolute magnetization    =     0.35 Bohr mag/cell

     iteration #  3     ecut=    80.00 Ry     beta= 0.70
     Davidson diagonalization with overlap
     ethr =  4.60E-03,  avg # of iterations =  1.0

     total cpu time spent up to now is        4.4 secs

     total energy              =    -328.68706846 Ry
     estimated scf accuracy    <       0.00578461 Ry

     total magnetization       =     0.00 Bohr mag/cell
     absolute magnetization    =     0.02 Bohr mag/cell

     iteration #  4     ecut=    80.00 Ry     beta= 0.70
     Davidson diagonalization with overlap
     ethr =  3.21E-05,  avg # of iterations =  2.7

     total cpu time spent up to now is        5.8 secs

     total energy              =    -328.68784684 Ry
     estimated scf accuracy    <       0.00086944 Ry

     total magnetization       =     0.01 Bohr mag/cell
     absolute magnetization    =     0.01 Bohr mag/cell

     iteration #  5     ecut=    80.00 Ry     beta= 0.70
     Davidson diagonalization with overlap
     ethr =  4.83E-06,  avg # of iterations =  1.6

     total cpu time spent up to now is        6.9 secs

     total energy              =    -328.68783909 Ry
     estimated scf accuracy    <       0.00012534 Ry

     total magnetization       =     0.00 Bohr mag/cell
     absolute magnetization    =     0.00 Bohr mag/cell

     iteration #  6     ecut=    80.00 Ry     beta= 0.70
     Davidson diagonalization with overlap
     ethr =  6.96E-07,  avg # of iterations =  1.8

     total cpu time spent up to now is        8.0 secs

     total energy              =    -328.68786528 Ry
     estimated scf accuracy    <       0.00000185 Ry

     total magnetization       =    -0.00 Bohr mag/cell
     absolute magnetization    =     0.00 Bohr mag/cell

     iteration #  7     ecut=    80.00 Ry     beta= 0.70
     Davidson diagonalization with overlap
     ethr =  1.03E-08,  avg # of iterations =  2.0

     total cpu time spent up to now is        9.2 secs

     total energy              =    -328.68786550 Ry
     estimated scf accuracy    <       0.00000023 Ry

     total magnetization       =    -0.00 Bohr mag/cell
     absolute magnetization    =     0.00 Bohr mag/cell

     iteration #  8     ecut=    80.00 Ry     beta= 0.70
     Davidson diagonalization with overlap
     ethr =  1.27E-09,  avg # of iterations =  1.6

     total cpu time spent up to now is       10.4 secs

     total energy              =    -328.68786554 Ry
     estimated scf accuracy    <          4.7E-09 Ry

     total magnetization       =     0.00 Bohr mag/cell
     absolute magnetization    =     0.00 Bohr mag/cell

     iteration #  9     ecut=    80.00 Ry     beta= 0.70
     Davidson diagonalization with overlap
     ethr =  2.59E-11,  avg # of iterations =  1.7

     Magnetic moment per site  (integrated on atomic sphere of radius R)
     atom   1 (R=0.412)  charge= 12.5085  magn=  0.0000

     total cpu time spent up to now is       11.5 secs

     End of self-consistent calculation

     Number of k-points >= 100: set verbosity='high' to print the bands.

     the Fermi energy is    91.7665 ev

!    total energy              =    -328.68786554 Ry
     estimated scf accuracy    <          2.3E-10 Ry
     smearing contrib. (-TS)   =       0.00003171 Ry
     internal energy E=F+TS    =    -328.68789725 Ry

     The total energy is F=E-TS. E is the sum of the following terms:
     one-electron contribution =     -13.95615359 Ry
     hartree contribution      =      60.76736166 Ry
     xc contribution           =     -47.33333518 Ry
     ewald contribution        =    -328.16577013 Ry

     total magnetization       =     0.00 Bohr mag/cell
     absolute magnetization    =     0.00 Bohr mag/cell

     convergence has been achieved in   9 iterations

     Forces acting on atoms (cartesian axes, Ry/au):

     atom    1 type  1   force =     0.00000000    0.00000000    0.00000000

     Total force =     0.000000     Total SCF correction =     0.000000


     Computing stress (Cartesian axis) and pressure

          total   stress  (Ry/bohr**3)                   (kbar)     P=   111018.22
   1.06839509   0.09092858  -0.00276233       157166.34    13376.06     -406.35
   0.09092858   1.03505447  -0.00230194        13376.06   152261.77     -338.63
  -0.00276233  -0.00230194   0.16061010         -406.35     -338.63    23626.56


     Writing all to output data dir ./out/pwscf.save/

     init_run     :      0.26s CPU      0.36s WALL (       1 calls)
     electrons    :      8.11s CPU     11.10s WALL (       1 calls)
     forces       :      0.05s CPU      0.09s WALL (       1 calls)
     stress       :      0.09s CPU      0.11s WALL (       1 calls)

     Called by init_run:
     wfcinit      :      0.25s CPU      0.34s WALL (       1 calls)
     potinit      :      0.00s CPU      0.00s WALL (       1 calls)
     hinit0       :      0.01s CPU      0.02s WALL (       1 calls)

     Called by electrons:
     c_bands      :      7.24s CPU      9.94s WALL (       9 calls)
     sum_band     :      0.85s CPU      1.14s WALL (       9 calls)
     v_of_rho     :      0.01s CPU      0.01s WALL (      10 calls)
     mix_rho      :      0.00s CPU      0.00s WALL (       9 calls)

     Called by c_bands:
     init_us_2    :      0.06s CPU      0.08s WALL (   10626 calls)
     init_us_2:cp :      0.05s CPU      0.07s WALL (   10626 calls)
     cegterg      :      6.88s CPU      9.35s WALL (    4554 calls)

     Called by *egterg:
     cdiaghg      :      1.65s CPU      2.17s WALL (   14400 calls)
     h_psi        :      4.37s CPU      6.00s WALL (   14906 calls)
     g_psi        :      0.01s CPU      0.01s WALL (    9846 calls)

     Called by h_psi:
     h_psi:calbec :      0.36s CPU      0.49s WALL (   14906 calls)
     vloc_psi     :      3.85s CPU      5.28s WALL (   14906 calls)
     add_vuspsi   :      0.12s CPU      0.17s WALL (   14906 calls)

     General routines
     calbec       :      0.40s CPU      0.57s WALL (   17436 calls)
     fft          :      0.00s CPU      0.01s WALL (     230 calls)
     ffts         :      0.00s CPU      0.00s WALL (      18 calls)
     fftw         :      4.38s CPU      6.00s WALL (  349228 calls)

     Parallel routines

     PWSCF        :      8.97s CPU     12.97s WALL


   This run was terminated on:  11:38:29  18Jun2023            

=------------------------------------------------------------------------------=
   JOB DONE.
=------------------------------------------------------------------------------=
