Ignoring PCI device with non-16bit domain.
Pass --enable-32bits-pci-domain to configure to support such devices
(warning: it would break the library ABI, don't enable unless really needed).

     Program PWSCF v.7.1 starts on 27Jun2023 at 12: 3:26 

     This program is part of the open-source Quantum ESPRESSO suite
     for quantum simulation of materials; please cite
         "P. Giannozzi et al., J. Phys.:Condens. Matter 21 395502 (2009);
         "P. Giannozzi et al., J. Phys.:Condens. Matter 29 465901 (2017);
         "P. Giannozzi et al., J. Chem. Phys. 152 154105 (2020);
          URL http://www.quantum-espresso.org", 
     in publications or presentations arising from this work. More details at
     http://www.quantum-espresso.org/quote

     Parallel version (MPI), running on    24 processors

     MPI processes distributed on     1 nodes
     12003 MiB available memory on the printing compute node when the environment starts

     Reading input from Ni_triclinic_t_atoms.in

     Current dimensions of program PWSCF are:
     Max number of different atomic species (ntypx) = 10
     Max number of k-points (npk) =  40000
     Max angular momentum in pseudopotentials (lmaxx) =  4

     K-points division:     npool     =       2
     R & G space division:  proc/nbgrp/npool/nimage =      12
     Subspace diagonalization in iterative solution of the eigenvalue problem:
     a serial algorithm will be used


     Parallelization info
     --------------------
     sticks:   dense  smooth     PW     G-vecs:    dense   smooth      PW
     Min          69      34     11                 1774      625     118
     Max          70      35     12                 1776      629     120
     Sum         833     417    137                21295     7529    1423

     Using Slab Decomposition



     bravais-lattice index     =            0
     lattice parameter (alat)  =       4.5984  a.u.
     unit-cell volume          =     119.8777 (a.u.)^3
     number of atoms/cell      =            1
     number of atomic types    =            1
     number of electrons       =        18.00
     number of Kohn-Sham states=           13
     kinetic-energy cutoff     =      60.0000  Ry
     charge density cutoff     =     480.0000  Ry
     scf convergence threshold =      1.0E-06
     mixing beta               =       0.7000
     number of iterations used =            8  TF        mixing
     energy convergence thresh.=      1.0E-05
     force convergence thresh. =      1.0E-04
     press convergence thresh. =      5.0E-01
     Exchange-correlation= PBE
                           (   1   4   3   4   0   0   0)
     nstep                     =           50


     celldm(1)=   4.598403  celldm(2)=   0.000000  celldm(3)=   0.000000
     celldm(4)=   0.000000  celldm(5)=   0.000000  celldm(6)=   0.000000

     crystal axes: (cart. coord. in units of alat)
               a(1) = (   1.000000   0.000000   0.000000 )  
               a(2) = (   0.066692   1.030811   0.000000 )  
               a(3) = (   0.312083  -0.014051   1.196020 )  

     reciprocal axes: (cart. coord. in units 2 pi/alat)
               b(1) = (  1.000000 -0.064699 -0.261695 )  
               b(2) = ( -0.000000  0.970110  0.011397 )  
               b(3) = (  0.000000  0.000000  0.836107 )  


     PseudoPot. # 1 for Ni read from file:
     /home/jmgoff/work/automation/qe_pseudos/Ni.upf
     MD5 check sum: caf20d35bef94d268ef04de15446df97
     Pseudo is Ultrasoft + core correction, Zval = 18.0
     Generated using 'atomic' code by A. Dal Corso  v.7.1
     Using radial grid of 1195 points,  6 beta functions with: 
                l(1) =   0
                l(2) =   0
                l(3) =   1
                l(4) =   1
                l(5) =   2
                l(6) =   2
     Q(r) pseudized with 0 coefficients 


     atomic species   valence    mass     pseudopotential
        Ni            18.00    58.69340     Ni( 1.00)

     Starting magnetic structure 
     atomic species   magnetization
        Ni           1.000

     No symmetry found



   Cartesian axes

     site n.     atom                  positions (alat units)
         1           Ni  tau(   1) = (   0.0000000   0.0000000   0.0000000  )

     number of k points=   253  Marzari-Vanderbilt smearing, width (Ry)=  0.0100

     Number of k-points >= 100: set verbosity='high' to print them.

     Dense  grid:    21295 G-vectors     FFT dimensions: (  36,  36,  40)

     Smooth grid:     7529 G-vectors     FFT dimensions: (  24,  24,  30)

     Estimated max dynamical RAM per process >      12.05 MB

     Estimated total dynamical RAM >     278.71 MB

     Check: negative core charge=   -0.000001
     Generating pointlists ...
     new r_m :   0.4125 (alat units)  1.8968 (a.u.) for type    1

     Initial potential from superposition of free atoms

     starting charge      17.9998, renormalised to      18.0000
     Starting wfcs are   10 randomized atomic wfcs +    3 random wfcs

     total cpu time spent up to now is        0.7 secs

     Self-consistent Calculation

     iteration #  1     ecut=    60.00 Ry     beta= 0.70
     Davidson diagonalization with overlap
     ethr =  1.00E-02,  avg # of iterations =  5.7

     negative rho (up, down):  0.000E+00 1.750E-04

     total cpu time spent up to now is        2.9 secs

     total energy              =    -335.78725060 Ry
     estimated scf accuracy    <       8.87128881 Ry

     total magnetization       =     6.78 Bohr mag/cell
     absolute magnetization    =     6.78 Bohr mag/cell

     iteration #  2     ecut=    60.00 Ry     beta= 0.70
     Davidson diagonalization with overlap
     ethr =  1.00E-02,  avg # of iterations =  2.6

     total cpu time spent up to now is        4.4 secs

     total energy              =    -338.41614075 Ry
     estimated scf accuracy    <       9.77330554 Ry

     total magnetization       =     0.29 Bohr mag/cell
     absolute magnetization    =     0.73 Bohr mag/cell

     iteration #  3     ecut=    60.00 Ry     beta= 0.70
     Davidson diagonalization with overlap
     ethr =  1.00E-02,  avg # of iterations =  2.0

     negative rho (up, down):  0.000E+00 6.017E-03

     total cpu time spent up to now is        5.7 secs

     total energy              =    -339.68283080 Ry
     estimated scf accuracy    <       1.50658052 Ry

     total magnetization       =     1.54 Bohr mag/cell
     absolute magnetization    =     1.90 Bohr mag/cell

     iteration #  4     ecut=    60.00 Ry     beta= 0.70
     Davidson diagonalization with overlap
     ethr =  8.37E-03,  avg # of iterations =  3.0

     total cpu time spent up to now is        7.1 secs

     total energy              =    -331.21977586 Ry
     estimated scf accuracy    <     494.22761253 Ry

     total magnetization       =     0.93 Bohr mag/cell
     absolute magnetization    =    32.16 Bohr mag/cell

     iteration #  5     ecut=    60.00 Ry     beta= 0.70
     Davidson diagonalization with overlap
     ethr =  8.37E-03,  avg # of iterations =  2.7

     total cpu time spent up to now is        8.5 secs

     total energy              =    -339.54652799 Ry
     estimated scf accuracy    <       1.71948283 Ry

     total magnetization       =     1.07 Bohr mag/cell
     absolute magnetization    =     2.33 Bohr mag/cell

     iteration #  6     ecut=    60.00 Ry     beta= 0.70
     Davidson diagonalization with overlap
     ethr =  8.37E-03,  avg # of iterations =  2.0

     total cpu time spent up to now is        9.7 secs

     total energy              =    -339.06236850 Ry
     estimated scf accuracy    <      67.50577848 Ry

     total magnetization       =     0.75 Bohr mag/cell
     absolute magnetization    =    11.93 Bohr mag/cell

     iteration #  7     ecut=    60.00 Ry     beta= 0.70
     Davidson diagonalization with overlap
     ethr =  8.37E-03,  avg # of iterations =  2.0

     total cpu time spent up to now is       10.8 secs

     total energy              =    -339.33619651 Ry
     estimated scf accuracy    <       9.28777638 Ry

     total magnetization       =     0.82 Bohr mag/cell
     absolute magnetization    =     3.50 Bohr mag/cell

     iteration #  8     ecut=    60.00 Ry     beta= 0.70
     Davidson diagonalization with overlap
     ethr =  8.37E-03,  avg # of iterations =  1.5

     total cpu time spent up to now is       12.0 secs

     total energy              =    -339.55989614 Ry
     estimated scf accuracy    <       2.80237811 Ry

     total magnetization       =     0.73 Bohr mag/cell
     absolute magnetization    =     2.49 Bohr mag/cell

     iteration #  9     ecut=    60.00 Ry     beta= 0.70
     Davidson diagonalization with overlap
     ethr =  8.37E-03,  avg # of iterations =  1.0

     total cpu time spent up to now is       12.9 secs

     total energy              =    -339.48937418 Ry
     estimated scf accuracy    <       4.50669392 Ry

     total magnetization       =     0.73 Bohr mag/cell
     absolute magnetization    =     3.27 Bohr mag/cell

     iteration # 10     ecut=    60.00 Ry     beta= 0.70
     Davidson diagonalization with overlap
     ethr =  8.37E-03,  avg # of iterations =  1.0

     total cpu time spent up to now is       13.9 secs

     total energy              =    -339.49033171 Ry
     estimated scf accuracy    <       1.54355476 Ry

     total magnetization       =     0.74 Bohr mag/cell
     absolute magnetization    =     2.07 Bohr mag/cell

     iteration # 11     ecut=    60.00 Ry     beta= 0.70
     Davidson diagonalization with overlap
     ethr =  8.37E-03,  avg # of iterations =  1.0

     total cpu time spent up to now is       14.8 secs

     total energy              =    -339.50749890 Ry
     estimated scf accuracy    <       0.10239616 Ry

     total magnetization       =     0.82 Bohr mag/cell
     absolute magnetization    =     1.08 Bohr mag/cell

     iteration # 12     ecut=    60.00 Ry     beta= 0.70
     Davidson diagonalization with overlap
     ethr =  5.69E-04,  avg # of iterations =  1.0

     total cpu time spent up to now is       15.8 secs

     total energy              =    -339.50784718 Ry
     estimated scf accuracy    <       0.07749748 Ry

     total magnetization       =     0.84 Bohr mag/cell
     absolute magnetization    =     1.01 Bohr mag/cell

     iteration # 13     ecut=    60.00 Ry     beta= 0.70
     Davidson diagonalization with overlap
     ethr =  4.31E-04,  avg # of iterations =  1.1

     total cpu time spent up to now is       16.7 secs

     total energy              =    -339.50979513 Ry
     estimated scf accuracy    <       0.01019437 Ry

     total magnetization       =     0.85 Bohr mag/cell
     absolute magnetization    =     0.97 Bohr mag/cell

     iteration # 14     ecut=    60.00 Ry     beta= 0.70
     Davidson diagonalization with overlap
     ethr =  5.66E-05,  avg # of iterations =  1.2

     total cpu time spent up to now is       17.7 secs

     total energy              =    -339.50997066 Ry
     estimated scf accuracy    <       0.00102024 Ry

     total magnetization       =     0.86 Bohr mag/cell
     absolute magnetization    =     0.97 Bohr mag/cell

     iteration # 15     ecut=    60.00 Ry     beta= 0.70
     Davidson diagonalization with overlap
     ethr =  5.67E-06,  avg # of iterations =  2.5

     total cpu time spent up to now is       18.9 secs

     total energy              =    -339.51002899 Ry
     estimated scf accuracy    <       0.00103501 Ry

     total magnetization       =     0.87 Bohr mag/cell
     absolute magnetization    =     0.98 Bohr mag/cell

     iteration # 16     ecut=    60.00 Ry     beta= 0.70
     Davidson diagonalization with overlap
     ethr =  5.67E-06,  avg # of iterations =  1.3

     total cpu time spent up to now is       19.9 secs

     total energy              =    -339.51008457 Ry
     estimated scf accuracy    <       0.00029151 Ry

     total magnetization       =     0.87 Bohr mag/cell
     absolute magnetization    =     0.97 Bohr mag/cell

     iteration # 17     ecut=    60.00 Ry     beta= 0.70
     Davidson diagonalization with overlap
     ethr =  1.62E-06,  avg # of iterations =  2.1

     total cpu time spent up to now is       21.1 secs

     total energy              =    -339.51002893 Ry
     estimated scf accuracy    <       0.00307698 Ry

     total magnetization       =     0.87 Bohr mag/cell
     absolute magnetization    =     0.97 Bohr mag/cell

     iteration # 18     ecut=    60.00 Ry     beta= 0.70
     Davidson diagonalization with overlap
     ethr =  1.62E-06,  avg # of iterations =  2.0

     total cpu time spent up to now is       22.2 secs

     total energy              =    -339.51006732 Ry
     estimated scf accuracy    <       0.00013235 Ry

     total magnetization       =     0.87 Bohr mag/cell
     absolute magnetization    =     0.97 Bohr mag/cell

     iteration # 19     ecut=    60.00 Ry     beta= 0.70
     Davidson diagonalization with overlap
     ethr =  7.35E-07,  avg # of iterations =  1.0

     total cpu time spent up to now is       23.2 secs

     total energy              =    -339.51006989 Ry
     estimated scf accuracy    <       0.00003564 Ry

     total magnetization       =     0.87 Bohr mag/cell
     absolute magnetization    =     0.98 Bohr mag/cell

     iteration # 20     ecut=    60.00 Ry     beta= 0.70
     Davidson diagonalization with overlap
     ethr =  1.98E-07,  avg # of iterations =  2.0

     total cpu time spent up to now is       24.3 secs

     total energy              =    -339.51006802 Ry
     estimated scf accuracy    <       0.00019256 Ry

     total magnetization       =     0.87 Bohr mag/cell
     absolute magnetization    =     0.98 Bohr mag/cell

     iteration # 21     ecut=    60.00 Ry     beta= 0.70
     Davidson diagonalization with overlap
