<UPF version="2.0.1">
  <PP_INFO>
    Generated using "atomic" code by A. Dal Corso  v.7.1
    Author: ADC
    Generation date: 18Jun2023
    Pseudopotential type: USPP
    Element: He
    Functional: PBE
    Suggested minimum cutoff for wavefunctions:  46. Ry
    Suggested minimum cutoff for charge density: 203. Ry
    The Pseudo was generated with a Scalar-Relativistic Calculation
    Local Potential by smoothing AE potential with Bessel fncs, cutoff radius:   0.6000
    Valence configuration: 
    nl pn  l   occ       Rcut    Rcut US       E pseu
    1S  1  0  2.00      0.900      1.100    -1.158627
    Generation configuration:
    1S  1  0  2.00      0.900      1.100    -1.158625
    1S  1  0  0.00      0.900      1.100     0.050000
    Pseudization used: troullier-martins
    <PP_INPUTFILE>
@input
title='He',
zed=2.,
rel=1,
config='1s2 2p-2',
iswitch=3,
dft='PBE'
/
@inputp
lpaw=.false.,
pseudotype=3,
file_pseudopw='He.pbe-rrkjus_psl.1.0.0.UPF',
author='ADC',
lloc=-1,
rcloc=0.6
which_augfun='PSQ',
rmatch_augfun_nc=.true.,
tm=.true.
/
2
1S  1  0  2.00  0.00  0.90  1.10  0.0
1S  1  0  0.00  0.05  0.90  1.10  0.0
    </PP_INPUTFILE>
  </PP_INFO>
    <!-- END OF HUMAN READABLE SECTION -->
  <PP_HEADER generated="Generated using 'atomic' code by A. Dal Corso  v.7.1" author="ADC" date="18Jun2023" comment="" element="He" pseudo_type="USPP" relativistic="scalar" is_ultrasoft="true" is_paw="false" is_coulomb="false" has_so="false" has_wfc="false" has_gipaw="false" paw_as_gipaw="false" core_correction="false" functional="PBE" z_valence="2.0000000000000000" total_psenergy="-5.7510535083627330" wfc_cutoff="46.234661719074296" rho_cutoff="203.11489122886488" l_max="0" l_max_rho="0" l_local="-1" mesh_size="985" number_of_wfc="1" number_of_proj="2"/>
  <PP_MESH mesh="985" dx="1.2500000000000001E-002" xmin="-7.0000000000000000" rmax="100.00000000000000" zmesh="2.0000000000000000">
    <PP_R>
   4.559409827772581E-04   4.616760143345111E-04   4.674831837082911E-04
   4.733633982806270E-04   4.793175768470099E-04   4.853466497599544E-04
   4.914515590743693E-04   4.976332586947557E-04   5.038927145242552E-04
   5.102309046155773E-04   5.166488193238185E-04   5.231474614612093E-04
   5.297278464538051E-04   5.363910025001484E-04   5.431379707319289E-04
   5.499698053766591E-04   5.568875739224016E-04   5.638923572845662E-04
   5.709852499748038E-04   5.781673602720289E-04   5.854398103955872E-04
   5.928037366806064E-04   6.002602897555504E-04   6.078106347220073E-04
   6.154559513367405E-04   6.231974341960248E-04   6.310362929223073E-04
   6.389737523532122E-04   6.470110527329240E-04   6.551494499059800E-04
   6.633902155134958E-04   6.717346371918634E-04   6.801840187739469E-04
   6.887396804928085E-04   6.974029591879994E-04   7.061752085144408E-04
   7.150577991539372E-04   7.240521190293478E-04   7.331595735214515E-04
   7.423815856885434E-04   7.517195964887862E-04   7.611750650053658E-04
   7.707494686744751E-04   7.804443035161661E-04   7.902610843681085E-04
   8.002013451222822E-04   8.102666389646533E-04   8.204585386178630E-04
   8.307786365869670E-04   8.412285454082706E-04   8.518098979012870E-04
   8.625243474238712E-04   8.733735681305598E-04   8.843592552341603E-04
   8.954831252706349E-04   9.067469163673076E-04   9.181523885144536E-04
   9.297013238403005E-04   9.413955268894887E-04   9.532368249050383E-04
   9.652270681138547E-04   9.773681300158335E-04   9.896619076765983E-04
   1.002110322023920E-03   1.014715318147867E-03   1.027478865604729E-03
   1.040402958724765E-03   1.053489616923817E-03   1.066740885018854E-03
   1.080158833547477E-03   1.093745559091443E-03   1.107503184604258E-03
   1.121433859742902E-03   1.135539761203703E-03   1.149823093062468E-03
   1.164286087118857E-03   1.178931003245116E-03   1.193760129739187E-03
   1.208775783682252E-03   1.223980311300792E-03   1.239376088333179E-03
   1.254965520400899E-03   1.270751043384429E-03   1.286735123803850E-03
   1.302920259204249E-03   1.319308978545961E-03   1.335903842599725E-03
   1.352707444346813E-03   1.369722409384184E-03   1.386951396334744E-03
   1.404397097262756E-03   1.422062238094484E-03   1.439949579044122E-03
   1.458061915045084E-03   1.476402076186723E-03   1.494972928156530E-03
   1.513777372687908E-03   1.532818348013572E-03   1.552098829324654E-03
   1.571621829235590E-03   1.591390398254833E-03   1.611407625261513E-03
   1.631676637988074E-03   1.652200603508991E-03   1.672982728735636E-03
   1.694026260917356E-03   1.715334488148867E-03   1.736910739884027E-03
   1.758758387456064E-03   1.780880844604365E-03   1.803281568007865E-03
   1.825964057825172E-03   1.848931858241466E-03   1.872188558022290E-03
   1.895737791074304E-03   1.919583237013082E-03   1.943728621738065E-03
   1.968177718014742E-03   1.992934346064145E-03   2.018002374159779E-03
   2.043385719232033E-03   2.069088347480218E-03   2.095114274992290E-03
   2.121467568372370E-03   2.148152345376170E-03   2.175172775554385E-03
   2.202533080904203E-03   2.230237536529001E-03   2.258290471306333E-03
   2.286696268564337E-03   2.315459366766623E-03   2.344584260205806E-03
   2.374075499705739E-03   2.403937693332593E-03   2.434175507114882E-03
   2.464793665772526E-03   2.495796953455108E-03   2.527190214489407E-03
   2.558978354136326E-03   2.591166339357362E-03   2.623759199590692E-03
   2.656762027537038E-03   2.690179979955410E-03   2.724018278468862E-03
   2.758282210380386E-03   2.792977129499050E-03   2.828108456976554E-03
   2.863681682154293E-03   2.899702363421071E-03   2.936176129081626E-03
   2.973108678236047E-03   3.010505781670279E-03   3.048373282757819E-03
   3.086717098372751E-03   3.125543219814281E-03   3.164857713742873E-03
   3.204666723128192E-03   3.244976468208944E-03   3.285793247464806E-03
   3.327123438600587E-03   3.368973499542734E-03   3.411349969448414E-03
   3.454259469727266E-03   3.497708705076005E-03   3.541704464526063E-03
   3.586253622504349E-03   3.631363139907446E-03   3.677040065189218E-03
   3.723291535462169E-03   3.770124777612638E-03   3.817547109429981E-03
   3.865565940750035E-03   3.914188774612887E-03   3.963423208435247E-03
   4.013276935197580E-03   4.063757744646106E-03   4.114873524510015E-03
   4.166632261733904E-03   4.219042043725765E-03   4.272111059620673E-03
   4.325847601560317E-03   4.380260065988714E-03   4.435356954964129E-03
   4.491146877487558E-03   4.547638550847912E-03   4.604840801984070E-03
   4.662762568864163E-03   4.721412901882106E-03   4.780800965271752E-03
   4.840936038538846E-03   4.901827517910914E-03   4.963484917805506E-03
   5.025917872316793E-03   5.089136136720934E-03   5.153149589000375E-03
   5.217968231387252E-03   5.283602191926327E-03   5.350061726057464E-03
   5.417357218218076E-03   5.485499183465744E-03   5.554498269121153E-03
   5.624365256431832E-03   5.695111062256689E-03   5.766746740771811E-03
   5.839283485197726E-03   5.912732629548309E-03   5.987105650401811E-03
   6.062414168694050E-03   6.138669951534218E-03   6.215884914043546E-03
   6.294071121216999E-03   6.373240789808534E-03   6.453406290239936E-03
   6.534580148533740E-03   6.616775048270470E-03   6.700003832570414E-03
   6.784279506100467E-03   6.869615237106072E-03   6.956024359468810E-03
   7.043520374789868E-03   7.132116954499628E-03   7.221827941993940E-03
   7.312667354797111E-03   7.404649386752200E-03   7.497788410238859E-03
   7.592098978418973E-03   7.687595827510716E-03   7.784293879091045E-03
   7.882208242427243E-03   7.981354216837811E-03   8.081747294082937E-03
   8.183403160785214E-03   8.286337700880627E-03   8.390566998100479E-03
   8.496107338484542E-03   8.602975212925692E-03   8.711187319746757E-03
   8.820760567309582E-03   8.931712076657017E-03   9.044059184188156E-03
   9.157819444367089E-03   9.273010632465942E-03   9.389650747342205E-03
   9.507758014251128E-03   9.627350887693465E-03   9.748448054298997E-03
   9.871068435746391E-03   9.995231191719715E-03   1.012095572290220E-02
   1.024826167400763E-02   1.037716893684987E-02   1.050769765345102E-02
   1.063986821918859E-02   1.077370128598239E-02   1.090921776552139E-02
   1.104643883253122E-02   1.118538592808280E-02   1.132608076294249E-02
   1.146854532096447E-02   1.161280186252579E-02   1.175887292800455E-02
   1.190678134130194E-02   1.205655021340844E-02   1.220820294601502E-02
   1.236176323516970E-02   1.251725507498007E-02   1.267470276136247E-02
   1.283413089583822E-02   1.299556438937767E-02   1.315902846629266E-02
   1.332454866817774E-02   1.349215085790124E-02   1.366186122364628E-02
   1.383370628300279E-02   1.400771288711091E-02   1.418390822485655E-02
   1.436231982711972E-02   1.454297557107624E-02   1.472590368455364E-02
   1.491113275044186E-02   1.509869171115925E-02   1.528860987317505E-02
   1.548091691158845E-02   1.567564287476544E-02   1.587281818903398E-02
   1.607247366343803E-02   1.627464049455172E-02   1.647935027135368E-02
   1.668663498016304E-02   1.689652700963728E-02   1.710905915583302E-02
   1.732426462733051E-02   1.754217705042252E-02   1.776283047436848E-02
   1.798625937671483E-02   1.821249866868212E-02   1.844158370062001E-02
   1.867355026753081E-02   1.890843461466254E-02   1.914627344317233E-02
   1.938710391586100E-02   1.963096366297991E-02   1.987789078811066E-02
   2.012792387411893E-02   2.038110198918311E-02   2.063746469289877E-02
   2.089705204245996E-02   2.115990459891816E-02   2.142606343352009E-02
   2.169557013412519E-02   2.196846681170371E-02   2.224479610691676E-02
   2.252460119677891E-02   2.280792580140470E-02   2.309481419084006E-02
   2.338531119197949E-02   2.367946219557046E-02   2.397731316330574E-02
   2.427891063500499E-02   2.458430173588679E-02   2.489353418393197E-02
   2.520665629733969E-02   2.552371700207721E-02   2.584476583952471E-02
   2.616985297421619E-02   2.649902920167790E-02   2.683234595636507E-02
   2.716985531969875E-02   2.751161002820363E-02   2.785766348174820E-02
   2.820806975188868E-02   2.856288359031765E-02   2.892216043741924E-02
   2.928595643093178E-02   2.965432841471936E-02   3.002733394765397E-02
   3.040503131260899E-02   3.078747952556612E-02   3.117473834483673E-02
   3.156686828039919E-02   3.196393060335379E-02   3.236598735549628E-02
   3.277310135901218E-02   3.318533622629282E-02   3.360275636987488E-02
   3.402542701250510E-02   3.445341419733129E-02   3.488678479822183E-02
   3.532560653021481E-02   3.576994796009861E-02   3.621987851712573E-02
   3.667546850386107E-02   3.713678910716695E-02   3.760391240932622E-02
   3.807691139930516E-02   3.855585998415836E-02   3.904083300057658E-02
   3.953190622658034E-02   4.002915639336029E-02   4.053266119726662E-02
   4.104249931194940E-02   4.155875040065128E-02   4.208149512865520E-02
   4.261081517588844E-02   4.314679324968525E-02   4.368951309771019E-02
   4.423905952104366E-02   4.479551838743236E-02   4.535897664470628E-02
   4.592952233436445E-02   4.650724460533175E-02   4.709223372788834E-02
   4.768458110777483E-02   4.828437930047443E-02   4.889172202567502E-02
   4.950670418191315E-02   5.012942186140187E-02   5.075997236504554E-02
   5.139845421764322E-02   5.204496718328332E-02   5.269961228093217E-02
   5.336249180021811E-02   5.403370931741466E-02   5.471336971162449E-02
   5.540157918116698E-02   5.609844526017187E-02   5.680407683538188E-02
   5.751858416316621E-02   5.824207888674851E-02   5.897467405365129E-02
   5.971648413335981E-02   6.046762503520835E-02   6.122821412649097E-02
   6.199837025080064E-02   6.277821374659866E-02   6.356786646601779E-02
   6.436745179390212E-02   6.517709466708585E-02   6.599692159391514E-02
   6.682706067401525E-02   6.766764161830635E-02   6.851879576927124E-02
   6.938065612147765E-02   7.025335734235909E-02   7.113703579325684E-02
   7.203182955072664E-02   7.293787842811371E-02   7.385532399739843E-02
   7.478430961131756E-02   7.572498042576334E-02   7.667748342246423E-02
   7.764196743195151E-02   7.861858315681383E-02   7.960748319524517E-02
   8.060882206488844E-02   8.162275622697920E-02   8.264944411079328E-02
   8.368904613840128E-02   8.474172474973510E-02   8.580764442796943E-02
   8.688697172522257E-02   8.797987528858076E-02   8.908652588644925E-02
   9.020709643523543E-02   9.134176202636739E-02   9.249069995365214E-02
   9.365408974097852E-02   9.483211317036766E-02   9.602495431037711E-02
   9.723279954486183E-02   9.845583760209703E-02   9.969425958426759E-02
   1.009482589973277E-01   1.022180317812370E-01   1.035037763405764E-01
   1.048056935755489E-01   1.061239869133715E-01   1.074588623400603E-01
   1.088105284326165E-01   1.101791963916170E-01   1.115650800742149E-01
   1.129683960275554E-01   1.143893635226113E-01   1.158282045884444E-01
   1.172851440468989E-01   1.187604095477291E-01   1.202542316041711E-01
   1.217668436289604E-01   1.232984819708033E-01   1.248493859513069E-01
   1.264197979023732E-01   1.280099632040650E-01   1.296201303229458E-01
   1.312505508509037E-01   1.329014795444634E-01   1.345731743645919E-01
   1.362658965170063E-01   1.379799104929866E-01   1.397154841107037E-01
   1.414728885570665E-01   1.432523984300950E-01   1.450542917818277E-01
   1.468788501617665E-01   1.487263586608704E-01   1.505971059561012E-01
   1.524913843555296E-01   1.544094898440100E-01   1.563517221294269E-01
   1.583183846895267E-01   1.603097848193354E-01   1.623262336791749E-01
   1.643680463432821E-01   1.664355418490398E-01   1.685290432468272E-01
   1.706488776504970E-01   1.727953762884873E-01   1.749688745555777E-01
   1.771697120652944E-01   1.793982327029759E-01   1.816547846795057E-01
   1.839397205857212E-01   1.862533974475065E-01   1.885961767815785E-01
   1.909684246519746E-01   1.933705117272508E-01   1.958028133383995E-01
   1.982657095374965E-01   2.007595851570834E-01   2.032848298702997E-01
   2.058418382517694E-01   2.084310098392542E-01   2.110527491960828E-01
   2.137074659743634E-01   2.163955749789938E-01   2.191174962324748E-01
   2.218736550405399E-01   2.246644820586108E-01   2.274904133590868E-01
   2.303518904994830E-01   2.332493605914243E-01   2.361832763705073E-01
   2.391540962670421E-01   2.421622844776813E-01   2.452083110379532E-01
   2.482926518957049E-01   2.514157889854705E-01   2.545782103037746E-01
   2.577804099853822E-01   2.610228883805082E-01   2.643061521329989E-01
   2.676307142594951E-01   2.709970942295936E-01   2.744058180470133E-01
   2.778574183317858E-01   2.813524344034781E-01   2.848914123654615E-01
   2.884749051902434E-01   2.921034728058680E-01   2.957776821834077E-01
   2.994981074255529E-01   3.032653298563167E-01   3.070799381118690E-01
   3.109425282325102E-01   3.148537037558052E-01   3.188140758108869E-01
   3.228242632139460E-01   3.268848925649237E-01   3.309965983454171E-01
   3.351600230178198E-01   3.393758171257074E-01   3.436446393954861E-01
   3.479671568393211E-01   3.523440448593568E-01   3.567759873532514E-01
   3.612636768210363E-01   3.658078144733209E-01   3.704091103408590E-01
   3.750682833854910E-01   3.797860616124845E-01   3.845631821842855E-01
   3.894003915357024E-01   3.942984454905384E-01   3.992581093796886E-01
   4.042801581607264E-01   4.093653765389912E-01   4.145145590902002E-01
   4.197285103846037E-01   4.250080451126992E-01   4.303539882125291E-01
   4.357671749985793E-01   4.412484512922977E-01   4.467986735542579E-01
   4.524187090179799E-01   4.581094358254391E-01   4.638717431642768E-01
   4.697065314067379E-01   4.756147122503571E-01   4.815972088604111E-01
   4.876549560141666E-01   4.937889002469411E-01   5.000000000000000E-01
   5.062892257703173E-01   5.126575602622147E-01   5.191059985409128E-01
   5.256355481880124E-01   5.322472294589297E-01   5.389420754423159E-01
   5.457211322214760E-01   5.525854590378241E-01   5.595361284563907E-01
   5.665742265334132E-01   5.737008529860362E-01   5.809171213641418E-01
   5.882241592243456E-01   5.956231083061795E-01   6.031151247104903E-01
   6.107013790800850E-01   6.183830567826426E-01   6.261613580959325E-01
   6.340374983953602E-01   6.420127083438707E-01   6.500882340842457E-01
   6.582653374338110E-01   6.665452960816017E-01   6.749294037880020E-01
   6.834189705868982E-01   6.920153229903758E-01   7.007198041959869E-01
   7.095337742966290E-01   7.184586104930627E-01   7.274957073091006E-01
   7.366464768095079E-01   7.459123488206354E-01   7.552947711538367E-01
   7.647952098316899E-01   7.744151493170666E-01   7.841560927450846E-01
   7.940195621579720E-01   8.040070987428919E-01   8.141202630727555E-01
   8.243606353500641E-01   8.347298156538215E-01   8.452294241895459E-01
   8.558611015424327E-01   8.666265089336982E-01   8.775273284801492E-01
   8.885652634570194E-01   8.997420385641046E-01   9.110594001952550E-01
   9.225191167112505E-01   9.341229787161112E-01   9.458727993368851E-01
   9.577704145069483E-01   9.698176832528775E-01   9.820164879849242E-01
   9.943687347911460E-01   1.006876353735239E+00   1.019541299158108E+00
   1.032365549983244E+00   1.045351110025929E+00   1.058500008306337E+00
   1.071814299366580E+00   1.085296063591721E+00   1.098947407534852E+00
   1.112770464246235E+00   1.126767393606604E+00   1.140940382664652E+00
   1.155291645978752E+00   1.169823425962996E+00   1.184537993237571E+00
   1.199437646983549E+00   1.214524715302144E+00   1.229801555578475E+00
   1.245270554849916E+00   1.260934130179075E+00   1.276794729031463E+00
   1.292854829657923E+00   1.309116941481851E+00   1.325583605491304E+00
   1.342257394636036E+00   1.359140914229523E+00   1.376236802356054E+00
   1.393547730282926E+00   1.411076402877850E+00   1.428825559031583E+00
   1.446797972085881E+00   1.464996450266852E+00   1.483423837123734E+00
   1.502083011973216E+00   1.520976890349333E+00   1.540108424459016E+00
   1.559480603643398E+00   1.579096454844884E+00   1.598959043080137E+00
   1.619071471918982E+00   1.639436883969337E+00   1.660058461368276E+00
   1.680939426279215E+00   1.702083041395409E+00   1.723492610449739E+00
   1.745171478730921E+00   1.767123033606237E+00   1.789350705050790E+00
   1.811857966183470E+00   1.834648333809623E+00   1.857725368970552E+00
   1.881092677499957E+00   1.904753910587331E+00   1.928712765348487E+00
   1.952972985403227E+00   1.977538361460289E+00   2.002412731909665E+00
   2.027599983422338E+00   2.053104051557606E+00   2.078928921378005E+00
   2.105078628071980E+00   2.131557257584411E+00   2.158368947255022E+00
   2.185517886464878E+00   2.213008317290969E+00   2.240844535169032E+00
   2.269030889564754E+00   2.297571784653345E+00   2.326471680007734E+00
   2.355735091295372E+00   2.385366590983801E+00   2.415370809055142E+00
   2.445752433729503E+00   2.476516212197557E+00   2.507666951362281E+00
   2.539209518590041E+00   2.571148842471146E+00   2.603489913589925E+00
   2.636237785304545E+00   2.669397574536590E+00   2.702974462570583E+00
   2.736973695863603E+00   2.771400586865012E+00   2.806260514846577E+00
   2.841558926742974E+00   2.877301338002865E+00   2.913493333450740E+00
   2.950140568159509E+00   2.987248768334161E+00   3.024823732206475E+00
   3.062871330940993E+00   3.101397509552436E+00   3.140408287834583E+00
   3.179909761300915E+00   3.219908102137032E+00   3.260409560165056E+00
   3.301420463820217E+00   3.342947221139636E+00   3.384996320763637E+00
   3.427574332949591E+00   3.470687910598518E+00   3.514343790294650E+00
   3.558548793357998E+00   3.603309826910233E+00   3.648633884953918E+00
   3.694528049465325E+00   3.740999491501043E+00   3.788055472318424E+00
   3.835703344510214E+00   3.883950553153389E+00   3.932804636972446E+00
   3.982273229517390E+00   4.032364060356437E+00   4.083084956283823E+00
   4.134443842542737E+00   4.186448744063632E+00   4.239107786718191E+00
   4.292429198588948E+00   4.346421311255001E+00   4.401092561093806E+00
   4.456451490599369E+00   4.512506749717065E+00   4.569267097195164E+00
   4.626741401953445E+00   4.684938644468968E+00   4.743867918179263E+00
   4.803538430903256E+00   4.863959506279944E+00   4.925140585225290E+00
   4.987091227407364E+00   5.049821112740027E+00   5.113340042895505E+00
   5.177657942835848E+00   5.242784862363785E+00   5.308730977693005E+00
   5.375506593038177E+00   5.443122142225074E+00   5.511588190320802E+00
   5.580915435284682E+00   5.651114709639795E+00   5.722196982165561E+00
   5.794173359611701E+00   5.867055088433607E+00   5.940853556549698E+00
   6.015580295120770E+00   6.091246980351737E+00   6.167865435316133E+00
   6.245447631803406E+00   6.324005692189611E+00   6.403551891331521E+00
   6.484098658484567E+00   6.565658579245015E+00   6.648244397516394E+00
   6.731869017500855E+00   6.816545505715382E+00   6.902287093033547E+00
   6.989107176752824E+00   7.077019322687904E+00   7.166037267290474E+00
   7.256174919795463E+00   7.347446364394471E+00   7.439865862436425E+00
   7.533447854655896E+00   7.628206963429590E+00   7.724157995061013E+00
   7.821315942094086E+00   7.919695985655716E+00   8.019313497827838E+00
   8.120184044049429E+00   8.222323385548531E+00   8.325747481805072E+00
   8.430472493044524E+00   8.536514782762930E+00   8.643890920283832E+00
   8.752617683347145E+00   8.862712060730821E+00   8.974191254905328E+00
   9.087072684721534E+00   9.201373988132536E+00   9.317113024949508E+00
   9.434307879632442E+00   9.552976864115834E+00   9.673138520669909E+00
   9.794811624798010E+00   9.918015188170166E+00   1.004276846159383E+01
   1.016909093802181E+01   1.029700235559802E+01   1.042652270074172E+01
   1.055767221127031E+01   1.069047137956167E+01   1.082494095575604E+01
   1.096110195099824E+01   1.109897564072083E+01   1.123858356796831E+01
   1.137994754676336E+01   1.152308966551530E+01   1.166803229047136E+01
   1.181479806921162E+01   1.196340993418758E+01   1.211389110630549E+01
   1.226626509855469E+01   1.242055571968142E+01   1.257678707790920E+01
   1.273498358470555E+01   1.289516995859653E+01   1.305737122902900E+01
   1.322161274028140E+01   1.338792015542408E+01   1.355631946032895E+01
   1.372683696773005E+01   1.389949932133485E+01   1.407433349998733E+01
   1.425136682188366E+01   1.443062694884052E+01   1.461214189061747E+01
   1.479594000929349E+01   1.498205002369851E+01   1.517050101390098E+01
   1.536132242575147E+01   1.555454407548383E+01   1.575019615437398E+01
   1.594830923345725E+01   1.614891426830536E+01   1.635204260386309E+01
   1.655772597934616E+01   1.676599653320048E+01   1.697688680812378E+01
   1.719042975615061E+01   1.740665874380102E+01   1.762560755729427E+01
   1.784731040782795E+01   1.807180193692347E+01   1.829911722183902E+01
   1.852929178105030E+01   1.876236157980050E+01   1.899836303571990E+01
   1.923733302451607E+01   1.947930888573601E+01   1.972432842860028E+01
   1.997242993791097E+01   2.022365218003372E+01   2.047803440895490E+01
   2.073561637241541E+01   2.099643831812100E+01   2.126054100003139E+01
   2.152796568472798E+01   2.179875415786175E+01   2.207294873068264E+01
   2.235059224665043E+01   2.263172808812938E+01   2.291640018316676E+01
   2.320465301235649E+01   2.349653161578967E+01   2.379208160009185E+01
   2.409134914554941E+01   2.439438101332523E+01   2.470122455276509E+01
   2.501192770879641E+01   2.532653902941933E+01   2.564510767329285E+01
   2.596768341741575E+01   2.629431666490423E+01   2.662505845286785E+01
   2.695996046038378E+01   2.729907501657212E+01   2.764245510877224E+01
   2.799015439082208E+01   2.834222719144194E+01   2.869872852272312E+01
   2.905971408872399E+01   2.942524029417373E+01   2.979536425328549E+01
   3.017014379868103E+01   3.054963749042669E+01   3.093390462518394E+01
   3.132300524547446E+01   3.171700014906167E+01   3.211595089845098E+01
   3.251991983050851E+01   3.292897006620185E+01   3.334316552046261E+01
   3.376257091217308E+01   3.418725177427911E+01   3.461727446402932E+01
   3.505270617334393E+01   3.549361493931347E+01   3.594006965482954E+01
   3.639214007934987E+01   3.684989684979792E+01   3.731341149160045E+01
   3.778275642986334E+01   3.825800500068794E+01   3.873923146263049E+01
   3.922651100830458E+01   3.971991977613067E+01   4.021953486223266E+01
   4.072543433248407E+01   4.123769723470656E+01   4.175640361102064E+01
   4.228163451035300E+01   4.281347200110033E+01   4.335199918395245E+01
   4.389730020487746E+01   4.444946026826916E+01   4.500856565026091E+01
   4.557470371220622E+01   4.614796291432894E+01   4.672843282954587E+01
   4.731620415746207E+01   4.791136873854344E+01   4.851401956846672E+01
   4.912425081265003E+01   4.974215782096697E+01   5.036783714264456E+01
   5.100138654134985E+01   5.164290501046543E+01   5.229249278855711E+01
   5.295025137503701E+01   5.361628354602228E+01   5.429069337039480E+01
   5.497358622606180E+01   5.566506881642118E+01   5.636524918703466E+01
   5.707423674250952E+01   5.779214226359383E+01   5.851907792448596E+01
   5.925515731036167E+01   6.000049543512278E+01   6.075520875936748E+01
   6.151941520858827E+01   6.229323419159773E+01   6.307678661918609E+01
   6.387019492301452E+01   6.467358307474449E+01   6.548707660540930E+01
   6.631080262502833E+01   6.714488984246776E+01   6.798946858555256E+01
   6.884467082142936E+01   6.971063017718758E+01   7.058748196073850E+01
   7.147536318195701E+01   7.237441257409057E+01   7.328477061543559E+01
   7.420657955128830E+01   7.513998341617049E+01   7.608512805633481E+01
   7.704216115255446E+01   7.801123224319755E+01   7.899249274759373E+01
   7.998609598969334E+01   8.099219722202417E+01   8.201095364995099E+01
   8.304252445623806E+01   8.408707082592272E+01   8.514475597150057E+01
   8.621574515842717E+01   8.730020573094222E+01   8.839830713821623E+01
   8.951022096082833E+01   9.063612093757568E+01   9.177618299261999E+01
   9.293058526297716E+01   9.409950812635024E+01   9.528313422931500E+01
   9.648164851585830E+01   9.769523825627547E+01   9.892409307643287E+01
   1.001684049873959E+02
    </PP_R>
    <PP_RAB>
   5.699262284715727E-06   5.770950179181390E-06   5.843539796353639E-06
   5.917042478507837E-06   5.991469710587625E-06   6.066833121999431E-06
   6.143144488429617E-06   6.220415733684446E-06   6.298658931553191E-06
   6.377886307694717E-06   6.458110241547732E-06   6.539343268265116E-06
   6.621598080672564E-06   6.704887531251856E-06   6.789224634149112E-06
   6.874622567208239E-06   6.961094674030021E-06   7.048654466057077E-06
   7.137315624685047E-06   7.227092003400362E-06   7.317997629944841E-06
   7.410046708507581E-06   7.503253621944381E-06   7.597632934025092E-06
   7.693199391709257E-06   7.789967927450309E-06   7.887953661528842E-06
   7.987171904415153E-06   8.087638159161551E-06   8.189368123824750E-06
   8.292377693918697E-06   8.396682964898293E-06   8.502300234674337E-06
   8.609246006160108E-06   8.717536989849993E-06   8.827190106430510E-06
   8.938222489424216E-06   9.050651487866848E-06   9.164494669018145E-06
   9.279769821106794E-06   9.396494956109828E-06   9.514688312567073E-06
   9.634368358430939E-06   9.755553793952078E-06   9.878263554601357E-06
   1.000251681402853E-05   1.012833298705817E-05   1.025573173272329E-05
   1.038473295733709E-05   1.051535681760338E-05   1.064762372376609E-05
   1.078155434279839E-05   1.091716960163200E-05   1.105449069042700E-05
   1.119353906588294E-05   1.133433645459135E-05   1.147690485643067E-05
   1.162126654800376E-05   1.176744408611861E-05   1.191546031131298E-05
   1.206533835142318E-05   1.221710162519792E-05   1.237077384595748E-05
   1.252637902529900E-05   1.268394147684834E-05   1.284348582005912E-05
   1.300503698405956E-05   1.316862021154771E-05   1.333426106273568E-05
   1.350198541934347E-05   1.367181948864303E-05   1.384378980755323E-05
   1.401792324678627E-05   1.419424701504629E-05   1.437278866328085E-05
   1.455357608898571E-05   1.473663754056396E-05   1.492200162173984E-05
   1.510969729602815E-05   1.529975389125990E-05   1.549220110416474E-05
   1.568706900501124E-05   1.588438804230537E-05   1.608418904754812E-05
   1.628650324005311E-05   1.649136223182451E-05   1.669879803249657E-05
   1.690884305433517E-05   1.712153011730230E-05   1.733689245418431E-05
   1.755496371578446E-05   1.777577797618105E-05   1.799936973805152E-05
   1.822577393806355E-05   1.845502595233404E-05   1.868716160195663E-05
   1.892221715859885E-05   1.916022935016965E-05   1.940123536655818E-05
   1.964527286544488E-05   1.989237997818542E-05   2.014259531576891E-05
   2.039595797485093E-05   2.065250754386239E-05   2.091228410919545E-05
   2.117532826146695E-05   2.144168110186084E-05   2.171138424855034E-05
   2.198447984320080E-05   2.226101055755456E-05   2.254101960009832E-05
   2.282455072281465E-05   2.311164822801833E-05   2.340235697527863E-05
   2.369672238842880E-05   2.399479046266352E-05   2.429660777172582E-05
   2.460222147518427E-05   2.491167932580182E-05   2.522502967699724E-05
   2.554232149040042E-05   2.586360434350273E-05   2.618892843740362E-05
   2.651834460465463E-05   2.685190431720213E-05   2.718965969442981E-05
   2.753166351130254E-05   2.787796920661251E-05   2.822863089132916E-05
   2.858370335705421E-05   2.894324208458279E-05   2.930730325257257E-05
   2.967594374632174E-05   3.004922116665741E-05   3.042719383893602E-05
   3.080992082215658E-05   3.119746191818886E-05   3.158987768111759E-05
   3.198722942670407E-05   3.238957924196703E-05   3.279698999488365E-05
   3.320952534421298E-05   3.362724974944263E-05   3.405022848086079E-05
   3.447852762975483E-05   3.491221411873812E-05   3.535135571220692E-05
   3.579602102692866E-05   3.624627954276339E-05   3.670220161352033E-05
   3.716385847795059E-05   3.763132227087849E-05   3.810466603447274E-05
   3.858396372965938E-05   3.906929024767851E-05   3.956072142178592E-05
   4.005833403910240E-05   4.056220585261179E-05   4.107241559331008E-05
   4.158904298250734E-05   4.211216874428417E-05   4.264187461810517E-05
   4.317824337159083E-05   4.372135881345007E-05   4.427130580657579E-05
   4.482817028130437E-05   4.539203924884308E-05   4.596300081486523E-05