Ignoring PCI device with non-16bit domain.
Pass --enable-32bits-pci-domain to configure to support such devices
(warning: it would break the library ABI, don't enable unless really needed).

     Program PWSCF v.7.1 starts on 23Jun2023 at 15: 3:19 

     This program is part of the open-source Quantum ESPRESSO suite
     for quantum simulation of materials; please cite
         "P. Giannozzi et al., J. Phys.:Condens. Matter 21 395502 (2009);
         "P. Giannozzi et al., J. Phys.:Condens. Matter 29 465901 (2017);
         "P. Giannozzi et al., J. Chem. Phys. 152 154105 (2020);
          URL http://www.quantum-espresso.org", 
     in publications or presentations arising from this work. More details at
     http://www.quantum-espresso.org/quote

     Parallel version (MPI), running on    24 processors

     MPI processes distributed on     1 nodes
     12197 MiB available memory on the printing compute node when the environment starts

     Reading input from Ni_monoclinic_bcm_atoms.in

     Current dimensions of program PWSCF are:
     Max number of different atomic species (ntypx) = 10
     Max number of k-points (npk) =  40000
     Max angular momentum in pseudopotentials (lmaxx) =  4
     Found identity + (  0.0000  0.0000 -0.5000) symmetry
     This is a supercell, fractional translations are disabled

     R & G space division:  proc/nbgrp/npool/nimage =      24
     Subspace diagonalization in iterative solution of the eigenvalue problem:
     a serial algorithm will be used


     Parallelization info
     --------------------
     sticks:   dense  smooth     PW     G-vecs:    dense   smooth      PW
     Min          27      13      4                 1697      595     107
     Max          28      14      5                 1710      607     119
     Sum         665     335    107                40905    14501    2639

     Using Slab Decomposition



     bravais-lattice index     =            0
     lattice parameter (alat)  =       4.2143  a.u.
     unit-cell volume          =     230.3045 (a.u.)^3
     number of atoms/cell      =            2
     number of atomic types    =            1
     number of electrons       =        36.00
     number of Kohn-Sham states=           22
     kinetic-energy cutoff     =      60.0000  Ry
     charge density cutoff     =     480.0000  Ry
     scf convergence threshold =      1.0E-06
     mixing beta               =       0.7000
     number of iterations used =            8  TF        mixing
     energy convergence thresh.=      1.0E-05
     force convergence thresh. =      1.0E-04
     press convergence thresh. =      5.0E-01
     Exchange-correlation= PBE
                           (   1   4   3   4   0   0   0)
     nstep                     =           50


     celldm(1)=   4.214335  celldm(2)=   0.000000  celldm(3)=   0.000000
     celldm(4)=   0.000000  celldm(5)=   0.000000  celldm(6)=   0.000000

     crystal axes: (cart. coord. in units of alat)
               a(1) = (   1.000000   0.000000   0.000000 )  
               a(2) = (   0.180329   0.983606   0.000000 )  
               a(3) = (  -0.874666  -0.728888   3.128197 )  

     reciprocal axes: (cart. coord. in units 2 pi/alat)
               b(1) = (  1.000000 -0.183334  0.236889 )  
               b(2) = ( -0.000000  1.016667  0.236889 )  
               b(3) = (  0.000000  0.000000  0.319673 )  


     PseudoPot. # 1 for Ni read from file:
     /home/jmgoff/work/automation/qe_pseudos/Ni.upf
     MD5 check sum: caf20d35bef94d268ef04de15446df97
     Pseudo is Ultrasoft + core correction, Zval = 18.0
     Generated using 'atomic' code by A. Dal Corso  v.7.1
     Using radial grid of 1195 points,  6 beta functions with: 
                l(1) =   0
                l(2) =   0
                l(3) =   1
                l(4) =   1
                l(5) =   2
                l(6) =   2
     Q(r) pseudized with 0 coefficients 


     atomic species   valence    mass     pseudopotential
        Ni            18.00    58.69340     Ni( 1.00)

     Starting magnetic structure 
     atomic species   magnetization
        Ni           1.000

     No symmetry found



   Cartesian axes

     site n.     atom                  positions (alat units)
         1           Ni  tau(   1) = (   0.0000000   0.0000000   0.0000000  )
         2           Ni  tau(   2) = (  -0.4373329  -0.3644438   1.5640985  )

     number of k points=   152  Marzari-Vanderbilt smearing, width (Ry)=  0.0100

     Number of k-points >= 100: set verbosity='high' to print them.

     Dense  grid:    40905 G-vectors     FFT dimensions: (  30,  30, 100)

     Smooth grid:    14501 G-vectors     FFT dimensions: (  24,  24,  72)

     Estimated max dynamical RAM per process >      18.21 MB

     Estimated total dynamical RAM >     437.13 MB

     Check: negative core charge=   -0.000001
     Generating pointlists ...
     new r_m :   0.4125 (alat units)  1.7384 (a.u.) for type    1

     Initial potential from superposition of free atoms

     starting charge      35.9995, renormalised to      36.0000
     Starting wfcs are   20 randomized atomic wfcs +    2 random wfcs

     total cpu time spent up to now is        1.1 secs

     Self-consistent Calculation

     iteration #  1     ecut=    60.00 Ry     beta= 0.70
     Davidson diagonalization with overlap
     ethr =  1.00E-02,  avg # of iterations =  6.4

     total cpu time spent up to now is        6.4 secs

     total energy              =    -672.82967510 Ry
     estimated scf accuracy    <      18.34047231 Ry

     total magnetization       =     8.00 Bohr mag/cell
     absolute magnetization    =    10.44 Bohr mag/cell

     iteration #  2     ecut=    60.00 Ry     beta= 0.70
     Davidson diagonalization with overlap
     ethr =  1.00E-02,  avg # of iterations =  3.4

     total cpu time spent up to now is       10.7 secs

     total energy              =    -676.97740556 Ry
     estimated scf accuracy    <      16.60976500 Ry

     total magnetization       =     0.83 Bohr mag/cell
     absolute magnetization    =     1.61 Bohr mag/cell

     iteration #  3     ecut=    60.00 Ry     beta= 0.70
     Davidson diagonalization with overlap
     ethr =  1.00E-02,  avg # of iterations =  2.0

     total cpu time spent up to now is       14.0 secs

     total energy              =    -679.00707239 Ry
     estimated scf accuracy    <       1.78403026 Ry

     total magnetization       =     2.82 Bohr mag/cell
     absolute magnetization    =     3.58 Bohr mag/cell

     iteration #  4     ecut=    60.00 Ry     beta= 0.70
     Davidson diagonalization with overlap
     ethr =  4.96E-03,  avg # of iterations =  3.0

     total cpu time spent up to now is       17.9 secs

     total energy              =    -673.42450494 Ry
     estimated scf accuracy    <     359.03845245 Ry

     total magnetization       =     1.53 Bohr mag/cell
     absolute magnetization    =    37.72 Bohr mag/cell

     iteration #  5     ecut=    60.00 Ry     beta= 0.70
     Davidson diagonalization with overlap
     ethr =  4.96E-03,  avg # of iterations =  3.0

     total cpu time spent up to now is       21.8 secs

     total energy              =    -678.97923490 Ry
     estimated scf accuracy    <       0.56508595 Ry

     total magnetization       =     1.97 Bohr mag/cell
     absolute magnetization    =     2.73 Bohr mag/cell

     iteration #  6     ecut=    60.00 Ry     beta= 0.70
     Davidson diagonalization with overlap
     ethr =  1.57E-03,  avg # of iterations =  3.1

     total cpu time spent up to now is       25.9 secs

     total energy              =    -678.78731665 Ry
     estimated scf accuracy    <      89.77168556 Ry

     total magnetization       =     1.21 Bohr mag/cell
     absolute magnetization    =    18.98 Bohr mag/cell

     iteration #  7     ecut=    60.00 Ry     beta= 0.70
     Davidson diagonalization with overlap
     ethr =  1.57E-03,  avg # of iterations =  2.0

     total cpu time spent up to now is       29.2 secs

     total energy              =    -678.70855975 Ry
     estimated scf accuracy    <      21.20736904 Ry

     total magnetization       =     1.66 Bohr mag/cell
     absolute magnetization    =     8.35 Bohr mag/cell

     iteration #  8     ecut=    60.00 Ry     beta= 0.70
     Davidson diagonalization with overlap
     ethr =  1.57E-03,  avg # of iterations =  2.1

     total cpu time spent up to now is       32.6 secs

     total energy              =    -679.18030004 Ry
     estimated scf accuracy    <       7.92593147 Ry

     total magnetization       =     1.62 Bohr mag/cell
     absolute magnetization    =     5.44 Bohr mag/cell

     iteration #  9     ecut=    60.00 Ry     beta= 0.70
     Davidson diagonalization with overlap
     ethr =  1.57E-03,  avg # of iterations =  2.0

     total cpu time spent up to now is       35.6 secs

     total energy              =    -678.73952365 Ry
     estimated scf accuracy    <      17.27688028 Ry

     total magnetization       =     1.59 Bohr mag/cell
     absolute magnetization    =     8.11 Bohr mag/cell

     iteration # 10     ecut=    60.00 Ry     beta= 0.70
     Davidson diagonalization with overlap
     ethr =  1.57E-03,  avg # of iterations =  2.0

     total cpu time spent up to now is       38.9 secs

     total energy              =    -679.00580545 Ry
     estimated scf accuracy    <       0.97455086 Ry

     total magnetization       =     1.63 Bohr mag/cell
     absolute magnetization    =     2.85 Bohr mag/cell

     iteration # 11     ecut=    60.00 Ry     beta= 0.70
     Davidson diagonalization with overlap
     ethr =  1.57E-03,  avg # of iterations =  1.5

     total cpu time spent up to now is       41.6 secs

     total energy              =    -678.98399670 Ry
     estimated scf accuracy    <       2.13714725 Ry

     total magnetization       =     1.66 Bohr mag/cell
     absolute magnetization    =     3.78 Bohr mag/cell

     iteration # 12     ecut=    60.00 Ry     beta= 0.70
     Davidson diagonalization with overlap
     ethr =  1.57E-03,  avg # of iterations =  1.6

     total cpu time spent up to now is       44.4 secs

     total energy              =    -678.98364053 Ry
     estimated scf accuracy    <       0.47524484 Ry

     total magnetization       =     1.66 Bohr mag/cell
     absolute magnetization    =     2.49 Bohr mag/cell

     iteration # 13     ecut=    60.00 Ry     beta= 0.70
     Davidson diagonalization with overlap
     ethr =  1.32E-03,  avg # of iterations =  1.5

     total cpu time spent up to now is       47.1 secs

     total energy              =    -679.00411898 Ry
     estimated scf accuracy    <       0.41149542 Ry

     total magnetization       =     1.73 Bohr mag/cell
     absolute magnetization    =     2.25 Bohr mag/cell

     iteration # 14     ecut=    60.00 Ry     beta= 0.70
     Davidson diagonalization with overlap
     ethr =  1.14E-03,  avg # of iterations =  2.0

     total cpu time spent up to now is       50.4 secs

     total energy              =    -678.97534899 Ry
     estimated scf accuracy    <      11.78643596 Ry

     total magnetization       =     1.61 Bohr mag/cell
     absolute magnetization    =     7.52 Bohr mag/cell

     iteration # 15     ecut=    60.00 Ry     beta= 0.70
     Davidson diagonalization with overlap
     ethr =  1.14E-03,  avg # of iterations =  2.0

     total cpu time spent up to now is       53.8 secs

     total energy              =    -679.05699425 Ry
     estimated scf accuracy    <       7.87305671 Ry

     total magnetization       =     1.51 Bohr mag/cell
     absolute magnetization    =     5.39 Bohr mag/cell

     iteration # 16     ecut=    60.00 Ry     beta= 0.70
     Davidson diagonalization with overlap
     ethr =  1.14E-03,  avg # of iterations =  2.0

     total cpu time spent up to now is       56.9 secs

     total energy              =    -679.00826153 Ry
     estimated scf accuracy    <       7.19532618 Ry

     total magnetization       =     1.54 Bohr mag/cell
     absolute magnetization    =     5.80 Bohr mag/cell

     iteration # 17     ecut=    60.00 Ry     beta= 0.70
     Davidson diagonalization with overlap
     ethr =  1.14E-03,  avg # of iterations =  2.0

     total cpu time spent up to now is       60.0 secs

     total energy              =    -679.05004753 Ry
     estimated scf accuracy    <       3.59852841 Ry

     total magnetization       =     1.58 Bohr mag/cell
     absolute magnetization    =     4.14 Bohr mag/cell

     iteration # 18     ecut=    60.00 Ry     beta= 0.70
     Davidson diagonalization with overlap
     ethr =  1.14E-03,  avg # of iterations =  1.3

     total cpu time spent up to now is       62.6 secs

     total energy              =    -679.02856600 Ry
     estimated scf accuracy    <       4.37065157 Ry

     total magnetization       =     1.58 Bohr mag/cell
     absolute magnetization    =     4.42 Bohr mag/cell

     iteration # 19     ecut=    60.00 Ry     beta= 0.70
     Davidson diagonalization with overlap
     ethr =  1.14E-03,  avg # of iterations =  1.3

     total cpu time spent up to now is       65.3 secs

     total energy              =    -679.05421403 Ry
     estimated scf accuracy    <       3.12868967 Ry

     total magnetization       =     1.61 Bohr mag/cell
     absolute magnetization    =     4.04 Bohr mag/cell

     iteration # 20     ecut=    60.00 Ry     beta= 0.70
     Davidson diagonalization with overlap
     ethr =  1.14E-03,  avg # of iterations =  2.0

     total cpu time spent up to now is       68.5 secs

     total energy              =    -678.95353443 Ry
     estimated scf accuracy    <       7.68232825 Ry

     total magnetization       =     1.60 Bohr mag/cell
     absolute magnetization    =     6.03 Bohr mag/cell

     iteration # 21     ecut=    60.00 Ry     beta= 0.70
     Davidson diagonalization with overlap
     ethr =  1.14E-03,  avg # of iterations =  2.1

     total cpu time spent up to now is       71.9 secs

     total energy              =    -678.86682612 Ry
     estimated scf accuracy    <      32.51743836 Ry

     total magnetization       =     1.54 Bohr mag/cell
     absolute magnetization    =    10.97 Bohr mag/cell

     iteration # 22     ecut=    60.00 Ry     beta= 0.70
     Davidson diagonalization with overlap
     ethr =  1.14E-03,  avg # of iterations =  2.3

     negative rho (up, down):  0.000E+00 1.272E-04

     total cpu time spent up to now is       75.3 secs

     total energy              =    -679.65605454 Ry
     estimated scf accuracy    <      23.02873440 Ry

     total magnetization       =     1.67 Bohr mag/cell
     absolute magnetization    =     9.01 Bohr mag/cell

     iteration # 23     ecut=    60.00 Ry     beta= 0.70
     Davidson diagonalization with overlap
     ethr =  1.14E-03,  avg # of iterations =  3.0

     negative rho (up, down):  0.000E+00 3.468E-04

     total cpu time spent up to now is       79.3 secs

     total energy              =    -680.38796103 Ry
     estimated scf accuracy    <     127.85997704 Ry

     total magnetization       =     1.66 Bohr mag/cell
     absolute magnetization    =    22.38 Bohr mag/cell

     iteration # 24     ecut=    60.00 Ry     beta= 0.70
     Davidson diagonalization with overlap
     ethr =  1.14E-03,  avg # of iterations =  2.0

     negative rho (up, down):  0.000E+00 1.058E-03

     total cpu time spent up to now is       82.6 secs

     total energy              =    -680.52749486 Ry
     estimated scf accuracy    <     118.50174966 Ry

     total magnetization       =     1.52 Bohr mag/cell
     absolute magnetization    =    21.63 Bohr mag/cell

     iteration # 25     ecut=    60.00 Ry     beta= 0.70
     Davidson diagonalization with overlap
     ethr =  1.14E-03,  avg # of iterations =  2.0

     negative rho (up, down):  0.000E+00 1.278E-04

     total cpu time spent up to now is       86.0 secs

     total energy              =    -680.57704578 Ry
     estimated scf accuracy    <     126.19843723 Ry

     total magnetization       =     1.32 Bohr mag/cell
     absolute magnetization    =    21.29 Bohr mag/cell

     iteration # 26     ecut=    60.00 Ry     beta= 0.70
     Davidson diagonalization with overlap
     ethr =  1.14E-03,  avg # of iterations =  3.0

     negative rho (up, down):  0.000E+00 6.812E-04

     total cpu time spent up to now is       89.9 secs

     total energy              =    -679.12930445 Ry
     estimated scf accuracy    <     197.44205835 Ry

     total magnetization       =     1.59 Bohr mag/cell
     absolute magnetization    =    26.96 Bohr mag/cell

     iteration # 27     ecut=    60.00 Ry     beta= 0.70
     Davidson diagonalization with overlap
     ethr =  1.14E-03,  avg # of iterations =  3.0

     negative rho (up, down):  0.000E+00 4.288E-04

     total cpu time spent up to now is       93.8 secs

     total energy              =    -680.53239357 Ry
     estimated scf accuracy    <     117.05781127 Ry

     total magnetization       =     1.95 Bohr mag/cell
     absolute magnetization    =    21.27 Bohr mag/cell

     iteration # 28     ecut=    60.00 Ry     beta= 0.70
     Davidson diagonalization with overlap
     ethr =  1.14E-03,  avg # of iterations =  2.0

     negative rho (up, down):  7.657E-03 4.286E-03

     total cpu time spent up to now is       97.2 secs

     total energy              =    -681.32460110 Ry
     estimated scf accuracy    <     133.35817892 Ry

     total magnetization       =     1.61 Bohr mag/cell
     absolute magnetization    =    21.93 Bohr mag/cell

     iteration # 29     ecut=    60.00 Ry     beta= 0.70
     Davidson diagonalization with overlap
     ethr =  1.14E-03,  avg # of iterations =  3.5

     negative rho (up, down):  1.259E-02 1.678E-01

     total cpu time spent up to now is      101.5 secs

     total energy              =    -672.49418136 Ry
     estimated scf accuracy    <     558.49310515 Ry

     total magnetization       =     1.72 Bohr mag/cell
     absolute magnetization    =    39.51 Bohr mag/cell

     iteration # 30     ecut=    60.00 Ry     beta= 0.70
     Davidson diagonalization with overlap
     ethr =  1.14E-03,  avg # of iterations =  4.9

     negative rho (up, down):  2.869E-03 1.464E-01

     total cpu time spent up to now is      107.1 secs

     total energy              =    -693.14994792 Ry
     estimated scf accuracy    <     814.05171008 Ry

     total magnetization       =     0.45 Bohr mag/cell
     absolute magnetization    =    50.39 Bohr mag/cell

     iteration # 31     ecut=    60.00 Ry     beta= 0.70
     Davidson diagonalization with overlap
     ethr =  1.14E-03,  avg # of iterations =  3.2

     negative rho (up, down):  1.725E+00 7.593E-01

     total cpu time spent up to now is      111.2 secs

     total energy              =    -690.20932960 Ry
     estimated scf accuracy    <     830.12722547 Ry

     total magnetization       =     0.81 Bohr mag/cell
     absolute magnetization    =    55.34 Bohr mag/cell

     iteration # 32     ecut=    60.00 Ry     beta= 0.70
     Davidson diagonalization with overlap
     ethr =  1.14E-03,  avg # of iterations =  7.0

     negative rho (up, down):  1.450E+00 3.606E-01

     total cpu time spent up to now is      118.2 secs

     total energy              =    -828.79713213 Ry
     estimated scf accuracy    <    2674.80968582 Ry

     total magnetization       =     0.47 Bohr mag/cell
     absolute magnetization    =    93.75 Bohr mag/cell

     iteration # 33     ecut=    60.00 Ry     beta= 0.70
     Davidson diagonalization with overlap
     ethr =  1.14E-03,  avg # of iterations =  5.9

     negative rho (up, down):  3.651E-01 1.427E-01

     total cpu time spent up to now is      124.7 secs

     total energy              =    -563.36904981 Ry
     estimated scf accuracy    <    3148.32551276 Ry

     total magnetization       =    -0.17 Bohr mag/cell
     absolute magnetization    =    54.07 Bohr mag/cell

     iteration # 34     ecut=    60.00 Ry     beta= 0.70
     Davidson diagonalization with overlap
     ethr =  1.14E-03,  avg # of iterations =  5.8

     negative rho (up, down):  1.143E-01 8.006E-02

     total cpu time spent up to now is      131.5 secs

     total energy              =    -682.87911837 Ry
     estimated scf accuracy    <    1211.08440995 Ry

     total magnetization       =    -0.08 Bohr mag/cell
     absolute magnetization    =    53.04 Bohr mag/cell

     iteration # 35     ecut=    60.00 Ry     beta= 0.70
     Davidson diagonalization with overlap
     ethr =  1.14E-03,  avg # of iterations =  4.5

     negative rho (up, down):  8.134E-02 8.964E-02

     total cpu time spent up to now is      136.8 secs

     total energy              =    -696.14399854 Ry
     estimated scf accuracy    <    1352.74934662 Ry

     total magnetization       =     0.47 Bohr mag/cell
     absolute magnetization    =    72.39 Bohr mag/cell

     iteration # 36     ecut=    60.00 Ry     beta= 0.70
     Davidson diagonalization with overlap
     ethr =  1.14E-03,  avg # of iterations =  3.0

     negative rho (up, down):  3.041E-01 3.936E-01

     total cpu time spent up to now is      141.0 secs

     total energy              =    -687.37144142 Ry
     estimated scf accuracy    <    1039.38687608 Ry

     total magnetization       =     0.55 Bohr mag/cell
     absolute magnetization    =    60.56 Bohr mag/cell

     iteration # 37     ecut=    60.00 Ry     beta= 0.70
     Davidson diagonalization with overlap
     ethr =  1.14E-03,  avg # of iterations =  5.8

     negative rho (up, down):  2.530E+00 1.410E+00

     total cpu time spent up to now is      147.3 secs

     total energy              =    -697.51104172 Ry
     estimated scf accuracy    <    2287.69120938 Ry

     total magnetization       =     0.03 Bohr mag/cell
     absolute magnetization    =    98.16 Bohr mag/cell

     iteration # 38     ecut=    60.00 Ry     beta= 0.70
     Davidson diagonalization with overlap
     ethr =  1.14E-03,  avg # of iterations =  8.0

     negative rho (up, down):  3.138E+00 2.891E+00

     total cpu time spent up to now is      155.0 secs

     total energy              =    -896.10738001 Ry
     estimated scf accuracy    <    2616.83655764 Ry

     total magnetization       =     0.11 Bohr mag/cell
     absolute magnetization    =    88.66 Bohr mag/cell

     iteration # 39     ecut=    60.00 Ry     beta= 0.70
     Davidson diagonalization with overlap
     ethr =  1.14E-03,  avg # of iterations =  6.9

     negative rho (up, down):  3.345E+00 3.464E+00

     total cpu time spent up to now is      162.0 secs

     total energy              =    -760.63681126 Ry
     estimated scf accuracy    <    3280.98659808 Ry

     total magnetization       =    -0.19 Bohr mag/cell
     absolute magnetization    =    78.65 Bohr mag/cell

     iteration # 40     ecut=    60.00 Ry     beta= 0.70
     Davidson diagonalization with overlap
     ethr =  1.14E-03,  avg # of iterations =  7.3

     negative rho (up, down):  3.376E+00 2.496E+00

     total cpu time spent up to now is      169.5 secs

     total energy              =    -920.79026706 Ry
     estimated scf accuracy    <    2960.60765528 Ry

     total magnetization       =    -0.17 Bohr mag/cell
     absolute magnetization    =   102.89 Bohr mag/cell

     iteration # 41     ecut=    60.00 Ry     beta= 0.70
     Davidson diagonalization with overlap
     ethr =  1.14E-03,  avg # of iterations =  6.0

     negative rho (up, down):  2.346E+00 2.492E+00

     total cpu time spent up to now is      176.0 secs

     total energy              =    -617.62845675 Ry
     estimated scf accuracy    <    3344.51985221 Ry

     total magnetization       =     0.12 Bohr mag/cell
     absolute magnetization    =    83.96 Bohr mag/cell

     iteration # 42     ecut=    60.00 Ry     beta= 0.70
     Davidson diagonalization with overlap
     ethr =  1.14E-03,  avg # of iterations =  9.4

     negative rho (up, down):  2.754E+00 8.044E+00

     total cpu time spent up to now is      185.7 secs

     total energy              =    -589.57055765 Ry
     estimated scf accuracy    <    3530.95950339 Ry

     total magnetization       =    -0.00 Bohr mag/cell
     absolute magnetization    =    84.59 Bohr mag/cell

     iteration # 43     ecut=    60.00 Ry     beta= 0.70
     Davidson diagonalization with overlap
     ethr =  1.14E-03,  avg # of iterations = 12.5

     negative rho (up, down):  4.394E+00 2.870E+00

     total cpu time spent up to now is      197.5 secs

     total energy              =    -441.77484328 Ry
     estimated scf accuracy    <    4566.10591028 Ry

     total magnetization       =     0.05 Bohr mag/cell
     absolute magnetization    =    39.67 Bohr mag/cell

     iteration # 44     ecut=    60.00 Ry     beta= 0.70
     Davidson diagonalization with overlap
     ethr =  1.14E-03,  avg # of iterations = 11.0

     negative rho (up, down):  4.889E+00 3.619E+00

     total cpu time spent up to now is      208.3 secs

     total energy              =    -793.33308760 Ry
     estimated scf accuracy    <    3035.82836174 Ry

     total magnetization       =    -0.15 Bohr mag/cell
     absolute magnetization    =    92.88 Bohr mag/cell

     iteration # 45     ecut=    60.00 Ry     beta= 0.70
     Davidson diagonalization with overlap
     ethr =  1.14E-03,  avg # of iterations =  5.3

     negative rho (up, down):  4.085E+00 3.239E+00

     total cpu time spent up to now is      214.3 secs

     total energy              =    -757.31749136 Ry
     estimated scf accuracy    <    2487.45324405 Ry

     total magnetization       =     0.11 Bohr mag/cell
     absolute magnetization    =   111.92 Bohr mag/cell

     iteration # 46     ecut=    60.00 Ry     beta= 0.70
     Davidson diagonalization with overlap
     ethr =  1.14E-03,  avg # of iterations =  7.3

     negative rho (up, down):  4.115E+00 3.892E+00

     total cpu time spent up to now is      222.0 secs

     total energy              =    -811.59738984 Ry
     estimated scf accuracy    <    2804.00510433 Ry

     total magnetization       =    -0.03 Bohr mag/cell
     absolute magnetization    =   109.19 Bohr mag/cell

     iteration # 47     ecut=    60.00 Ry     beta= 0.70
     Davidson diagonalization with overlap
     ethr =  1.14E-03,  avg # of iterations =  5.6

     negative rho (up, down):  3.856E+00 3.823E+00

     total cpu time spent up to now is      227.9 secs

     total energy              =    -839.07393182 Ry
     estimated scf accuracy    <    2716.30378886 Ry

     total magnetization       =    -0.07 Bohr mag/cell
     absolute magnetization    =   114.92 Bohr mag/cell

     iteration # 48     ecut=    60.00 Ry     beta= 0.70
     Davidson diagonalization with overlap
     ethr =  1.14E-03,  avg # of iterations =  7.5

     negative rho (up, down):  2.564E+00 2.588E+00

     total cpu time spent up to now is      235.3 secs

     total energy              =    -658.12581711 Ry
     estimated scf accuracy    <    3026.79746516 Ry

     total magnetization       =    -0.20 Bohr mag/cell
     absolute magnetization    =    98.92 Bohr mag/cell

     iteration # 49     ecut=    60.00 Ry     beta= 0.70
     Davidson diagonalization with overlap
     ethr =  1.14E-03,  avg # of iterations =  7.4

     negative rho (up, down):  3.827E+00 2.765E+00

     total cpu time spent up to now is      243.3 secs

     total energy              =    -793.06992701 Ry
     estimated scf accuracy    <    2844.84853709 Ry

     total magnetization       =     0.23 Bohr mag/cell
     absolute magnetization    =   121.23 Bohr mag/cell

     iteration # 50     ecut=    60.00 Ry     beta= 0.70
     Davidson diagonalization with overlap
     ethr =  1.14E-03,  avg # of iterations =  6.9

     negative rho (up, down):  8.361E+00 2.523E+00

     total cpu time spent up to now is      250.3 secs

     total energy              =    -728.58092824 Ry
     estimated scf accuracy    <    2791.08896585 Ry

     total magnetization       =     0.12 Bohr mag/cell
     absolute magnetization    =   105.37 Bohr mag/cell

     iteration # 51     ecut=    60.00 Ry     beta= 0.70
     Davidson diagonalization with overlap
     ethr =  1.14E-03,  avg # of iterations = 10.8

     negative rho (up, down):  7.186E+00 5.335E+00

     total cpu time spent up to now is      259.8 secs

     total energy              =    -641.02145051 Ry
     estimated scf accuracy    <    4019.51616359 Ry

     total magnetization       =    -0.22 Bohr mag/cell
     absolute magnetization    =    66.10 Bohr mag/cell

     iteration # 52     ecut=    60.00 Ry     beta= 0.70
     Davidson diagonalization with overlap
     ethr =  1.14E-03,  avg # of iterations = 10.0

     negative rho (up, down):  4.398E+00 1.381E+01

     total cpu time spent up to now is      269.7 secs

     total energy              =    -575.36853829 Ry
     estimated scf accuracy    <    2809.29668780 Ry

     total magnetization       =    -0.48 Bohr mag/cell
     absolute magnetization    =    87.56 Bohr mag/cell

     iteration # 53     ecut=    60.00 Ry     beta= 0.70
     Davidson diagonalization with overlap
     ethr =  1.14E-03,  avg # of iterations = 12.7

     negative rho (up, down):  6.941E+00 6.514E+00

     total cpu time spent up to now is      281.8 secs

     total energy              =    -467.11531166 Ry
     estimated scf accuracy    <    5520.57891291 Ry

     total magnetization       =    -0.46 Bohr mag/cell
     absolute magnetization    =    30.27 Bohr mag/cell

     iteration # 54     ecut=    60.00 Ry     beta= 0.70
     Davidson diagonalization with overlap
     ethr =  1.14E-03,  avg # of iterations = 10.9

     negative rho (up, down):  7.252E+00 6.591E+00

     total cpu time spent up to now is      292.3 secs

     total energy              =    -749.56760225 Ry
     estimated scf accuracy    <    2751.14353706 Ry

     total magnetization       =    -0.46 Bohr mag/cell
     absolute magnetization    =    94.09 Bohr mag/cell

     iteration # 55     ecut=    60.00 Ry     beta= 0.70
     Davidson diagonalization with overlap
     ethr =  1.14E-03,  avg # of iterations =  6.2

     negative rho (up, down):  5.378E+00 4.637E+00

     total cpu time spent up to now is      299.1 secs

     total energy              =    -711.54248997 Ry
     estimated scf accuracy    <    1972.71729368 Ry

     total magnetization       =    -0.12 Bohr mag/cell
     absolute magnetization    =   119.90 Bohr mag/cell

     iteration # 56     ecut=    60.00 Ry     beta= 0.70
     Davidson diagonalization with overlap
     ethr =  1.14E-03,  avg # of iterations =  7.8

     negative rho (up, down):  7.527E+00 9.212E+00

     total cpu time spent up to now is      307.3 secs

     total energy              =    -646.13689050 Ry
     estimated scf accuracy    <    2720.20135127 Ry

     total magnetization       =    -0.02 Bohr mag/cell
     absolute magnetization    =    97.21 Bohr mag/cell

     iteration # 57     ecut=    60.00 Ry     beta= 0.70
     Davidson diagonalization with overlap
     ethr =  1.14E-03,  avg # of iterations = 10.0

     negative rho (up, down):  7.948E+00 8.185E+00

     total cpu time spent up to now is      317.2 secs

     total energy              =    -648.22924644 Ry
     estimated scf accuracy    <    2799.34547033 Ry

     total magnetization       =    -0.17 Bohr mag/cell
     absolute magnetization    =    89.90 Bohr mag/cell

     iteration # 58     ecut=    60.00 Ry     beta= 0.70
     Davidson diagonalization with overlap
     ethr =  1.14E-03,  avg # of iterations =  7.5

     negative rho (up, down):  8.903E+00 8.177E+00

     total cpu time spent up to now is      325.3 secs

     total energy              =    -773.48913312 Ry
     estimated scf accuracy    <    1865.41166732 Ry

     total magnetization       =    -0.11 Bohr mag/cell
     absolute magnetization    =   125.87 Bohr mag/cell

     iteration # 59     ecut=    60.00 Ry     beta= 0.70
     Davidson diagonalization with overlap
     ethr =  1.14E-03,  avg # of iterations =  6.7

     negative rho (up, down):  8.310E+00 7.423E+00

     total cpu time spent up to now is      332.3 secs

     total energy              =    -747.68724184 Ry
     estimated scf accuracy    <    2059.82143154 Ry

     total magnetization       =     0.08 Bohr mag/cell
     absolute magnetization    =   111.80 Bohr mag/cell

     iteration # 60     ecut=    60.00 Ry     beta= 0.70
     Davidson diagonalization with overlap
     ethr =  1.14E-03,  avg # of iterations =  6.7

     negative rho (up, down):  8.149E+00 6.297E+00

     total cpu time spent up to now is      339.0 secs

     total energy              =    -784.61276865 Ry
     estimated scf accuracy    <    1826.92326981 Ry

     total magnetization       =     0.28 Bohr mag/cell
     absolute magnetization    =   120.75 Bohr mag/cell

     iteration # 61     ecut=    60.00 Ry     beta= 0.70
     Davidson diagonalization with overlap
     ethr =  1.14E-03,  avg # of iterations =  8.5

     negative rho (up, down):  1.090E+01 1.127E+01

     total cpu time spent up to now is      347.5 secs

     total energy              =    -215.99818205 Ry
     estimated scf accuracy    <    3331.01490480 Ry

     total magnetization       =    -0.22 Bohr mag/cell
     absolute magnetization    =    72.80 Bohr mag/cell

     iteration # 62     ecut=    60.00 Ry     beta= 0.70
     Davidson diagonalization with overlap
     ethr =  1.14E-03,  avg # of iterations = 13.3

     negative rho (up, down):  7.249E+00 1.363E+01

     total cpu time spent up to now is      359.7 secs

     total energy              =    -349.50890362 Ry
     estimated scf accuracy    <    4464.40327985 Ry

     total magnetization       =    -0.04 Bohr mag/cell
     absolute magnetization    =    49.11 Bohr mag/cell

     iteration # 63     ecut=    60.00 Ry     beta= 0.70
     Davidson diagonalization with overlap
     ethr =  1.14E-03,  avg # of iterations = 14.0

     negative rho (up, down):  8.945E+00 8.360E+00

     total cpu time spent up to now is      371.8 secs

     total energy              =    -525.84263763 Ry
     estimated scf accuracy    <    4585.48123930 Ry

     total magnetization       =     0.07 Bohr mag/cell
     absolute magnetization    =    41.92 Bohr mag/cell

     iteration # 64     ecut=    60.00 Ry     beta= 0.70
     Davidson diagonalization with overlap
     ethr =  1.14E-03,  avg # of iterations = 10.2

     negative rho (up, down):  8.988E+00 8.566E+00

     total cpu time spent up to now is      382.3 secs

     total energy              =    -747.26512725 Ry
     estimated scf accuracy    <    2194.87729893 Ry

     total magnetization       =    -0.06 Bohr mag/cell
     absolute magnetization    =   104.20 Bohr mag/cell

     iteration # 65     ecut=    60.00 Ry     beta= 0.70
     Davidson diagonalization with overlap
     ethr =  1.14E-03,  avg # of iterations =  5.6

     negative rho (up, down):  8.417E+00 8.891E+00

     total cpu time spent up to now is      388.7 secs

     total energy              =    -770.60234047 Ry
     estimated scf accuracy    <    1712.42135881 Ry

     total magnetization       =     0.10 Bohr mag/cell
     absolute magnetization    =   124.81 Bohr mag/cell

     iteration # 66     ecut=    60.00 Ry     beta= 0.70
     Davidson diagonalization with overlap
     ethr =  1.14E-03,  avg # of iterations =  5.1

     negative rho (up, down):  9.876E+00 1.055E+01

     total cpu time spent up to now is      394.0 secs

     total energy              =    -781.35215666 Ry
     estimated scf accuracy    <    1788.52282853 Ry

     total magnetization       =    -0.18 Bohr mag/cell
     absolute magnetization    =   125.58 Bohr mag/cell

     iteration # 67     ecut=    60.00 Ry     beta= 0.70
     Davidson diagonalization with overlap
     ethr =  1.14E-03,  avg # of iterations = 11.4

     negative rho (up, down):  8.722E+00 9.277E+00

     total cpu time spent up to now is      405.0 secs

     total energy              =    -556.78468809 Ry
     estimated scf accuracy    <    3967.97032934 Ry

     total magnetization       =    -0.03 Bohr mag/cell
     absolute magnetization    =    63.02 Bohr mag/cell

     iteration # 68     ecut=    60.00 Ry     beta= 0.70
     Davidson diagonalization with overlap
     ethr =  1.14E-03,  avg # of iterations =  8.4

     negative rho (up, down):  8.495E+00 9.502E+00

     total cpu time spent up to now is      414.2 secs

     total energy              =    -772.71906965 Ry
     estimated scf accuracy    <    1690.29380569 Ry

     total magnetization       =    -0.55 Bohr mag/cell
     absolute magnetization    =   126.01 Bohr mag/cell

     iteration # 69     ecut=    60.00 Ry     beta= 0.70
     Davidson diagonalization with overlap
     ethr =  1.14E-03,  avg # of iterations =  7.9

     negative rho (up, down):  9.005E+00 9.313E+00

     total cpu time spent up to now is      421.9 secs

     total energy              =    -698.79532707 Ry
     estimated scf accuracy    <    2036.56440931 Ry

     total magnetization       =    -0.00 Bohr mag/cell
     absolute magnetization    =   111.38 Bohr mag/cell

     iteration # 70     ecut=    60.00 Ry     beta= 0.70
     Davidson diagonalization with overlap
     ethr =  1.14E-03,  avg # of iterations =  7.9

     negative rho (up, down):  1.271E+01 8.933E+00

     total cpu time spent up to now is      430.4 secs

     total energy              =    -640.13185123 Ry
     estimated scf accuracy    <    1834.79782042 Ry

     total magnetization       =     0.14 Bohr mag/cell
     absolute magnetization    =   116.86 Bohr mag/cell

     iteration # 71     ecut=    60.00 Ry     beta= 0.70
     Davidson diagonalization with overlap
     ethr =  1.14E-03,  avg # of iterations = 11.4

     negative rho (up, down):  1.284E+01 1.004E+01

     total cpu time spent up to now is      441.0 secs

     total energy              =    -592.85488960 Ry
     estimated scf accuracy    <    2921.81611386 Ry

     total magnetization       =    -0.03 Bohr mag/cell
     absolute magnetization    =    72.58 Bohr mag/cell

     iteration # 72     ecut=    60.00 Ry     beta= 0.70
     Davidson diagonalization with overlap
     ethr =  1.14E-03,  avg # of iterations = 12.6

     negative rho (up, down):  9.835E+00 1.409E+01

     total cpu time spent up to now is      453.9 secs

     total energy              =    -343.21154829 Ry
     estimated scf accuracy    <    4068.47971345 Ry

     total magnetization       =     0.01 Bohr mag/cell
     absolute magnetization    =    52.86 Bohr mag/cell

     iteration # 73     ecut=    60.00 Ry     beta= 0.70
     Davidson diagonalization with overlap
     ethr =  1.14E-03,  avg # of iterations = 12.0

     negative rho (up, down):  1.153E+01 1.152E+01

     total cpu time spent up to now is      464.3 secs

     total energy              =    -478.02305791 Ry
     estimated scf accuracy    <    3934.54542381 Ry

     total magnetization       =    -0.05 Bohr mag/cell
     absolute magnetization    =    59.21 Bohr mag/cell

     iteration # 74     ecut=    60.00 Ry     beta= 0.70
     Davidson diagonalization with overlap
     ethr =  1.14E-03,  avg # of iterations = 10.2

     negative rho (up, down):  1.093E+01 1.165E+01

     total cpu time spent up to now is      474.2 secs

     total energy              =    -711.07414010 Ry
     estimated scf accuracy    <    2111.80842774 Ry

     total magnetization       =    -0.41 Bohr mag/cell
     absolute magnetization    =   108.12 Bohr mag/cell

     iteration # 75     ecut=    60.00 Ry     beta= 0.70
     Davidson diagonalization with overlap
     ethr =  1.14E-03,  avg # of iterations =  7.0

     negative rho (up, down):  1.112E+01 1.162E+01

     total cpu time spent up to now is      481.4 secs

     total energy              =    -755.42491119 Ry
     estimated scf accuracy    <    1347.71872058 Ry

     total magnetization       =    -0.20 Bohr mag/cell
     absolute magnetization    =   124.48 Bohr mag/cell

     iteration # 76     ecut=    60.00 Ry     beta= 0.70
     Davidson diagonalization with overlap
     ethr =  1.14E-03,  avg # of iterations =  3.7

     negative rho (up, down):  1.403E+01 1.470E+01

     total cpu time spent up to now is      485.8 secs

     total energy              =    -746.18511991 Ry
     estimated scf accuracy    <    1344.52377346 Ry

     total magnetization       =    -0.09 Bohr mag/cell
     absolute magnetization    =   125.60 Bohr mag/cell

     iteration # 77     ecut=    60.00 Ry     beta= 0.70
     Davidson diagonalization with overlap
     ethr =  1.14E-03,  avg # of iterations =  9.3

     negative rho (up, down):  1.088E+01 1.146E+01

     total cpu time spent up to now is      494.9 secs

     total energy              =    -593.62679247 Ry
     estimated scf accuracy    <    2747.72677362 Ry

     total magnetization       =     0.24 Bohr mag/cell
     absolute magnetization    =    85.56 Bohr mag/cell

     iteration # 78     ecut=    60.00 Ry     beta= 0.70
     Davidson diagonalization with overlap
     ethr =  1.14E-03,  avg # of iterations =  7.9

     negative rho (up, down):  1.233E+01 1.308E+01

     total cpu time spent up to now is      503.3 secs

     total energy              =    -759.58388504 Ry
     estimated scf accuracy    <    1363.75575374 Ry

     total magnetization       =    -0.25 Bohr mag/cell
     absolute magnetization    =   125.09 Bohr mag/cell

     iteration # 79     ecut=    60.00 Ry     beta= 0.70
     Davidson diagonalization with overlap
     ethr =  1.14E-03,  avg # of iterations =  5.5

     negative rho (up, down):  1.272E+01 1.295E+01

     total cpu time spent up to now is      509.1 secs

     total energy              =    -706.76107475 Ry
     estimated scf accuracy    <    1311.14484993 Ry

     total magnetization       =    -0.24 Bohr mag/cell
     absolute magnetization    =   118.01 Bohr mag/cell

     iteration # 80     ecut=    60.00 Ry     beta= 0.70
     Davidson diagonalization with overlap
     ethr =  1.14E-03,  avg # of iterations =  5.8

     negative rho (up, down):  2.170E+01 1.639E+01

     total cpu time spent up to now is      515.5 secs

     total energy              =    -666.96522144 Ry
     estimated scf accuracy    <    1026.79621410 Ry

     total magnetization       =     0.25 Bohr mag/cell
     absolute magnetization    =   128.37 Bohr mag/cell

     iteration # 81     ecut=    60.00 Ry     beta= 0.70
     Davidson diagonalization with overlap
     ethr =  1.14E-03,  avg # of iterations = 10.1

     negative rho (up, down):  1.985E+01 1.718E+01

     total cpu time spent up to now is      524.5 secs

     total energy              =    -595.40186575 Ry
     estimated scf accuracy    <    4040.12013504 Ry

     total magnetization       =    -0.35 Bohr mag/cell
     absolute magnetization    =    67.10 Bohr mag/cell

     iteration # 82     ecut=    60.00 Ry     beta= 0.70
     Davidson diagonalization with overlap
     ethr =  1.14E-03,  avg # of iterations =  7.6

     negative rho (up, down):  1.697E+01 1.912E+01

     total cpu time spent up to now is      532.4 secs

     total energy              =    -566.55730783 Ry
     estimated scf accuracy    <    1624.97438480 Ry

     total magnetization       =     0.33 Bohr mag/cell
     absolute magnetization    =    96.74 Bohr mag/cell

     iteration # 83     ecut=    60.00 Ry     beta= 0.70
     Davidson diagonalization with overlap
     ethr =  1.14E-03,  avg # of iterations =  9.0

     negative rho (up, down):  1.982E+01 1.856E+01

     total cpu time spent up to now is      541.0 secs

     total energy              =    -520.55355366 Ry
     estimated scf accuracy    <    2207.50160214 Ry

     total magnetization       =     0.09 Bohr mag/cell
     absolute magnetization    =    85.86 Bohr mag/cell

     iteration # 84     ecut=    60.00 Ry     beta= 0.70
     Davidson diagonalization with overlap
     ethr =  1.14E-03,  avg # of iterations =  8.7

     negative rho (up, down):  1.931E+01 1.917E+01

     total cpu time spent up to now is      549.4 secs

     total energy              =    -634.87152976 Ry
     estimated scf accuracy    <    1367.56478269 Ry

     total magnetization       =    -0.21 Bohr mag/cell
     absolute magnetization    =   109.14 Bohr mag/cell

     iteration # 85     ecut=    60.00 Ry     beta= 0.70
     Davidson diagonalization with overlap
     ethr =  1.14E-03,  avg # of iterations =  6.5

     negative rho (up, down):  2.165E+01 2.140E+01

     total cpu time spent up to now is      556.4 secs

     total energy              =    -665.17242451 Ry
     estimated scf accuracy    <     354.69655296 Ry

     total magnetization       =     0.15 Bohr mag/cell
     absolute magnetization    =   130.74 Bohr mag/cell

     iteration # 86     ecut=    60.00 Ry     beta= 0.70
     Davidson diagonalization with overlap
     ethr =  1.14E-03,  avg # of iterations =  5.0

     negative rho (up, down):  2.536E+01 2.535E+01

     total cpu time spent up to now is      561.6 secs

     total energy              =    -639.09724083 Ry
     estimated scf accuracy    <     183.15578690 Ry

     total magnetization       =     0.09 Bohr mag/cell
     absolute magnetization    =   131.52 Bohr mag/cell

     iteration # 87     ecut=    60.00 Ry     beta= 0.70
     Davidson diagonalization with overlap
     ethr =  1.14E-03,  avg # of iterations =  3.7

     negative rho (up, down):  2.708E+01 2.701E+01

     total cpu time spent up to now is      565.9 secs

     total energy              =    -626.79485291 Ry
     estimated scf accuracy    <      39.22213677 Ry

     total magnetization       =    -0.01 Bohr mag/cell
     absolute magnetization    =   131.54 Bohr mag/cell

     iteration # 88     ecut=    60.00 Ry     beta= 0.70
     Davidson diagonalization with overlap
     ethr =  1.14E-03,  avg # of iterations =  4.5

     negative rho (up, down):  2.780E+01 2.775E+01

     total cpu time spent up to now is      570.7 secs

     total energy              =    -622.51202916 Ry
     estimated scf accuracy    <      54.27945963 Ry

     total magnetization       =     0.10 Bohr mag/cell
     absolute magnetization    =   131.17 Bohr mag/cell

     iteration # 89     ecut=    60.00 Ry     beta= 0.70
     Davidson diagonalization with overlap
     ethr =  1.14E-03,  avg # of iterations =  3.2

     negative rho (up, down):  2.698E+01 2.693E+01

     total cpu time spent up to now is      574.9 secs

     total energy              =    -628.39999048 Ry
     estimated scf accuracy    <      48.55624968 Ry

     total magnetization       =    -0.06 Bohr mag/cell
     absolute magnetization    =   131.05 Bohr mag/cell

     iteration # 90     ecut=    60.00 Ry     beta= 0.70
     Davidson diagonalization with overlap
     ethr =  1.14E-03,  avg # of iterations =  5.2

     negative rho (up, down):  2.587E+01 2.639E+01

     total cpu time spent up to now is      580.1 secs

     total energy              =    -630.57226534 Ry
     estimated scf accuracy    <     211.42024241 Ry

     total magnetization       =    -0.02 Bohr mag/cell
     absolute magnetization    =   128.59 Bohr mag/cell

     iteration # 91     ecut=    60.00 Ry     beta= 0.70
     Davidson diagonalization with overlap
     ethr =  1.14E-03,  avg # of iterations =  5.1

     negative rho (up, down):  2.709E+01 2.613E+01

     total cpu time spent up to now is      585.3 secs

     total energy              =    -628.55975879 Ry
     estimated scf accuracy    <      82.29481183 Ry

     total magnetization       =    -0.33 Bohr mag/cell
     absolute magnetization    =   129.63 Bohr mag/cell

     iteration # 92     ecut=    60.00 Ry     beta= 0.70
     Davidson diagonalization with overlap
     ethr =  1.14E-03,  avg # of iterations =  5.0

     negative rho (up, down):  2.656E+01 2.719E+01

     total cpu time spent up to now is      591.0 secs

     total energy              =    -619.58609791 Ry
     estimated scf accuracy    <     173.71172570 Ry

     total magnetization       =     0.20 Bohr mag/cell
     absolute magnetization    =   126.27 Bohr mag/cell

     iteration # 93     ecut=    60.00 Ry     beta= 0.70
     Davidson diagonalization with overlap
     ethr =  1.14E-03,  avg # of iterations =  4.6

     negative rho (up, down):  2.748E+01 2.698E+01

     total cpu time spent up to now is      596.2 secs

     total energy              =    -619.65719084 Ry
     estimated scf accuracy    <      54.87709655 Ry

     total magnetization       =    -0.09 Bohr mag/cell
     absolute magnetization    =   128.83 Bohr mag/cell

     iteration # 94     ecut=    60.00 Ry     beta= 0.70
     Davidson diagonalization with overlap
     ethr =  1.14E-03,  avg # of iterations =  5.1

     negative rho (up, down):  2.689E+01 2.678E+01

     total cpu time spent up to now is      601.9 secs

     total energy              =    -625.45341603 Ry
     estimated scf accuracy    <     133.14331926 Ry

     total magnetization       =     0.09 Bohr mag/cell
     absolute magnetization    =   129.26 Bohr mag/cell

     iteration # 95     ecut=    60.00 Ry     beta= 0.70
     Davidson diagonalization with overlap
     ethr =  1.14E-03,  avg # of iterations =  5.0

     negative rho (up, down):  2.655E+01 2.691E+01

     total cpu time spent up to now is      606.9 secs

     total energy              =    -628.01798669 Ry
     estimated scf accuracy    <      37.12473293 Ry

     total magnetization       =     0.05 Bohr mag/cell
     absolute magnetization    =   131.11 Bohr mag/cell

     iteration # 96     ecut=    60.00 Ry     beta= 0.70
     Davidson diagonalization with overlap
     ethr =  1.14E-03,  avg # of iterations =  4.6

     negative rho (up, down):  2.703E+01 2.721E+01

     total cpu time spent up to now is      611.8 secs

     total energy              =    -626.87371203 Ry
     estimated scf accuracy    <      14.20671483 Ry

     total magnetization       =    -0.11 Bohr mag/cell
     absolute magnetization    =   131.24 Bohr mag/cell

     iteration # 97     ecut=    60.00 Ry     beta= 0.70
     Davidson diagonalization with overlap
     ethr =  1.14E-03,  avg # of iterations =  4.0

     negative rho (up, down):  2.714E+01 2.739E+01

     total cpu time spent up to now is      616.1 secs

     total energy              =    -625.48267210 Ry
     estimated scf accuracy    <      15.87604747 Ry

     total magnetization       =    -0.13 Bohr mag/cell
     absolute magnetization    =   131.46 Bohr mag/cell

     iteration # 98     ecut=    60.00 Ry     beta= 0.70
     Davidson diagonalization with overlap
     ethr =  1.14E-03,  avg # of iterations =  4.0

     negative rho (up, down):  2.744E+01 2.746E+01

     total cpu time spent up to now is      620.5 secs

     total energy              =    -624.59881765 Ry
     estimated scf accuracy    <      11.68265288 Ry

     total magnetization       =    -0.10 Bohr mag/cell
     absolute magnetization    =   131.48 Bohr mag/cell

     iteration # 99     ecut=    60.00 Ry     beta= 0.70
     Davidson diagonalization with overlap
     ethr =  1.14E-03,  avg # of iterations =  3.0

     negative rho (up, down):  2.756E+01 2.753E+01

     total cpu time spent up to now is      624.3 secs

     total energy              =    -623.73906735 Ry
     estimated scf accuracy    <       9.94062813 Ry

     total magnetization       =    -0.01 Bohr mag/cell
     absolute magnetization    =   131.66 Bohr mag/cell

     iteration #100     ecut=    60.00 Ry     beta= 0.70
     Davidson diagonalization with overlap
     ethr =  1.14E-03,  avg # of iterations =  4.0

     negative rho (up, down):  2.755E+01 2.745E+01

     total cpu time spent up to now is      628.6 secs

     total energy              =    -624.02841286 Ry
     estimated scf accuracy    <      11.18949575 Ry

     total magnetization       =    -0.03 Bohr mag/cell
     absolute magnetization    =   131.59 Bohr mag/cell

     End of self-consistent calculation

     convergence NOT achieved after 100 iterations: stopping

     Writing config to output data dir ./out/pwscf.save/

     init_run     :      0.81s CPU      1.01s WALL (       1 calls)
     electrons    :    498.38s CPU    627.46s WALL (       1 calls)

     Called by init_run:
     wfcinit      :      0.69s CPU      0.86s WALL (       1 calls)
     potinit      :      0.02s CPU      0.03s WALL (       1 calls)
     hinit0       :      0.08s CPU      0.10s WALL (       1 calls)

     Called by electrons:
     c_bands      :    467.05s CPU    588.64s WALL (     100 calls)
     sum_band     :     29.50s CPU     36.80s WALL (     100 calls)
     v_of_rho     :      0.75s CPU      0.78s WALL (     101 calls)
     newd         :      0.94s CPU      0.97s WALL (     101 calls)
     mix_rho      :      0.10s CPU      0.17s WALL (     100 calls)

     Called by c_bands:
     init_us_2    :      1.19s CPU      1.50s WALL (   61104 calls)
     init_us_2:cp :      1.12s CPU      1.43s WALL (   61104 calls)
     cegterg      :    461.03s CPU    580.89s WALL (   30400 calls)

     Called by *egterg:
     cdiaghg      :    118.27s CPU    152.06s WALL (  208348 calls)
     h_psi        :    223.26s CPU    286.24s WALL (  208652 calls)
     s_psi        :     14.09s CPU     17.08s WALL (  208652 calls)
     g_psi        :      0.69s CPU      0.79s WALL (  177948 calls)

     Called by h_psi:
     h_psi:calbec :     15.76s CPU     20.20s WALL (  208652 calls)
     vloc_psi     :    192.60s CPU    247.50s WALL (  208652 calls)
     add_vuspsi   :     13.88s CPU     17.29s WALL (  208652 calls)

     General routines
     calbec       :     18.69s CPU     23.93s WALL (  239052 calls)
     fft          :      0.31s CPU      0.40s WALL (    2523 calls)
     ffts         :      0.02s CPU      0.02s WALL (     402 calls)
     fftw         :    205.28s CPU    263.40s WALL ( 6494062 calls)
     interpolate  :      0.03s CPU      0.04s WALL (     202 calls)
     davcio       :      0.00s CPU      0.00s WALL (      18 calls)

     Parallel routines

     PWSCF        :   8m19.33s CPU  10m28.67s WALL


   This run was terminated on:  15:13:48  23Jun2023            

=------------------------------------------------------------------------------=
   JOB DONE.
=------------------------------------------------------------------------------=
Note: The following floating-point exceptions are signalling: IEEE_DENORMAL
Note: The following floating-point exceptions are signalling: IEEE_DENORMAL
Note: The following floating-point exceptions are signalling: IEEE_DENORMAL
Note: The following floating-point exceptions are signalling: IEEE_DENORMAL
Note: The following floating-point exceptions are signalling: IEEE_DENORMAL
Note: The following floating-point exceptions are signalling: IEEE_DENORMAL
Note: The following floating-point exceptions are signalling: IEEE_DENORMAL
Note: The following floating-point exceptions are signalling: IEEE_DENORMAL
Note: The following floating-point exceptions are signalling: IEEE_DENORMAL
Note: The following floating-point exceptions are signalling: IEEE_DENORMAL
Note: The following floating-point exceptions are signalling: IEEE_DENORMAL
Note: The following floating-point exceptions are signalling: IEEE_DENORMAL
Note: The following floating-point exceptions are signalling: IEEE_DENORMAL
Note: The following floating-point exceptions are signalling: IEEE_DENORMAL
Note: The following floating-point exceptions are signalling: IEEE_DENORMAL
Note: The following floating-point exceptions are signalling: IEEE_DENORMAL
Note: The following floating-point exceptions are signalling: IEEE_DENORMAL
