Ignoring PCI device with non-16bit domain.
Pass --enable-32bits-pci-domain to configure to support such devices
(warning: it would break the library ABI, don't enable unless really needed).

     Program PWSCF v.7.1 starts on 18Jun2023 at 16:22: 2 

     This program is part of the open-source Quantum ESPRESSO suite
     for quantum simulation of materials; please cite
         "P. Giannozzi et al., J. Phys.:Condens. Matter 21 395502 (2009);
         "P. Giannozzi et al., J. Phys.:Condens. Matter 29 465901 (2017);
         "P. Giannozzi et al., J. Chem. Phys. 152 154105 (2020);
          URL http://www.quantum-espresso.org", 
     in publications or presentations arising from this work. More details at
     http://www.quantum-espresso.org/quote

     Parallel version (MPI), running on    24 processors

     MPI processes distributed on     1 nodes
     9423 MiB available memory on the printing compute node when the environment starts

     Reading input from Ni_hexagonal_h_atoms.in

     Current dimensions of program PWSCF are:
     Max number of different atomic species (ntypx) = 10
     Max number of k-points (npk) =  40000
     Max angular momentum in pseudopotentials (lmaxx) =  4

     K-points division:     npool     =       2
     R & G space division:  proc/nbgrp/npool/nimage =      12
     Subspace diagonalization in iterative solution of the eigenvalue problem:
     a serial algorithm will be used


     Parallelization info
     --------------------
     sticks:   dense  smooth     PW     G-vecs:    dense   smooth      PW
     Min          39      20      7                 1036      366      79
     Max          40      21      8                 1038      369      84
     Sum         475     241     85                12441     4395     953

     Using Slab Decomposition



     bravais-lattice index     =            0
     lattice parameter (alat)  =       3.7795  a.u.
     unit-cell volume          =      70.1307 (a.u.)^3
     number of atoms/cell      =            1
     number of atomic types    =            1
     number of electrons       =        18.00
     number of Kohn-Sham states=           13
     kinetic-energy cutoff     =      60.0000  Ry
     charge density cutoff     =     480.0000  Ry
     scf convergence threshold =      1.0E-06
     mixing beta               =       0.7000
     number of iterations used =            8  TF        mixing
     energy convergence thresh.=      1.0E-05
     force convergence thresh. =      1.0E-04
     press convergence thresh. =      5.0E-01
     Exchange-correlation= PBE
                           (   1   4   3   4   0   0   0)
     nstep                     =           50


     celldm(1)=   3.779452  celldm(2)=   0.000000  celldm(3)=   0.000000
     celldm(4)=   0.000000  celldm(5)=   0.000000  celldm(6)=   0.000000

     crystal axes: (cart. coord. in units of alat)
               a(1) = (   1.000000   0.000000   0.000000 )  
               a(2) = (  -0.500000   0.866025   0.000000 )  
               a(3) = (   0.000000   0.000000   1.500000 )  

     reciprocal axes: (cart. coord. in units 2 pi/alat)
               b(1) = (  1.000000  0.577350 -0.000000 )  
               b(2) = (  0.000000  1.154701  0.000000 )  
               b(3) = (  0.000000 -0.000000  0.666667 )  


     PseudoPot. # 1 for Ni read from file:
     /home/jmgoff/work/automation/qe_pseudos/Ni.upf
     MD5 check sum: caf20d35bef94d268ef04de15446df97
     Pseudo is Ultrasoft + core correction, Zval = 18.0
     Generated using 'atomic' code by A. Dal Corso  v.7.1
     Using radial grid of 1195 points,  6 beta functions with: 
                l(1) =   0
                l(2) =   0
                l(3) =   1
                l(4) =   1
                l(5) =   2
                l(6) =   2
     Q(r) pseudized with 0 coefficients 


     atomic species   valence    mass     pseudopotential
        Ni            18.00    58.69340     Ni( 1.00)

     Starting magnetic structure 
     atomic species   magnetization
        Ni           1.000

     No symmetry found



   Cartesian axes

     site n.     atom                  positions (alat units)
         1           Ni  tau(   1) = (   0.0000000   0.0000000   0.0000000  )

     number of k points=   424  Marzari-Vanderbilt smearing, width (Ry)=  0.0100

     Number of k-points >= 100: set verbosity='high' to print them.

     Dense  grid:    12441 G-vectors     FFT dimensions: (  27,  27,  40)

     Smooth grid:     4395 G-vectors     FFT dimensions: (  20,  20,  27)

     Estimated max dynamical RAM per process >       9.98 MB

     Estimated total dynamical RAM >     233.55 MB

     Check: negative core charge=   -0.000001
     Generating pointlists ...
     new r_m :   0.4125 (alat units)  1.5590 (a.u.) for type    1

     Initial potential from superposition of free atoms

     starting charge      17.9998, renormalised to      18.0000
     Starting wfcs are   10 randomized atomic wfcs +    3 random wfcs

     total cpu time spent up to now is        0.7 secs

     Self-consistent Calculation

     iteration #  1     ecut=    60.00 Ry     beta= 0.70
     Davidson diagonalization with overlap
     ethr =  1.00E-02,  avg # of iterations =  5.5

     total cpu time spent up to now is        3.3 secs

     total energy              =    -335.69328146 Ry
     estimated scf accuracy    <       8.26090822 Ry

     total magnetization       =     5.84 Bohr mag/cell
     absolute magnetization    =     5.84 Bohr mag/cell

     iteration #  2     ecut=    60.00 Ry     beta= 0.70
     Davidson diagonalization with overlap
     ethr =  1.00E-02,  avg # of iterations =  2.3

     total cpu time spent up to now is        5.2 secs

     total energy              =    -338.68598684 Ry
     estimated scf accuracy    <       5.08045206 Ry

     total magnetization       =     1.01 Bohr mag/cell
     absolute magnetization    =     1.13 Bohr mag/cell

     iteration #  3     ecut=    60.00 Ry     beta= 0.70
     Davidson diagonalization with overlap
     ethr =  1.00E-02,  avg # of iterations =  1.9

     total cpu time spent up to now is        6.7 secs

     total energy              =    -339.44665052 Ry
     estimated scf accuracy    <       0.91377510 Ry

     total magnetization       =     1.32 Bohr mag/cell
     absolute magnetization    =     1.60 Bohr mag/cell

     iteration #  4     ecut=    60.00 Ry     beta= 0.70
     Davidson diagonalization with overlap
     ethr =  5.08E-03,  avg # of iterations =  2.5

     total cpu time spent up to now is        8.6 secs

     total energy              =    -335.01425759 Ry
     estimated scf accuracy    <     277.09500793 Ry

     total magnetization       =     0.52 Bohr mag/cell
     absolute magnetization    =    23.99 Bohr mag/cell

     iteration #  5     ecut=    60.00 Ry     beta= 0.70
     Davidson diagonalization with overlap
     ethr =  5.08E-03,  avg # of iterations =  2.2

     total cpu time spent up to now is       10.4 secs

     total energy              =    -339.35064373 Ry
     estimated scf accuracy    <       0.35135410 Ry

     total magnetization       =     0.69 Bohr mag/cell
     absolute magnetization    =     1.14 Bohr mag/cell

     iteration #  6     ecut=    60.00 Ry     beta= 0.70
     Davidson diagonalization with overlap
     ethr =  1.95E-03,  avg # of iterations =  2.0

     total cpu time spent up to now is       12.0 secs

     total energy              =    -339.76858765 Ry
     estimated scf accuracy    <      16.44648791 Ry

     total magnetization       =     0.61 Bohr mag/cell
     absolute magnetization    =     5.31 Bohr mag/cell

     iteration #  7     ecut=    60.00 Ry     beta= 0.70
     Davidson diagonalization with overlap
     ethr =  1.95E-03,  avg # of iterations =  2.0

     total cpu time spent up to now is       13.5 secs

     total energy              =    -338.87126542 Ry
     estimated scf accuracy    <      31.50457083 Ry

     total magnetization       =     0.56 Bohr mag/cell
     absolute magnetization    =     7.93 Bohr mag/cell

     iteration #  8     ecut=    60.00 Ry     beta= 0.70
     Davidson diagonalization with overlap
     ethr =  1.95E-03,  avg # of iterations =  2.0

     total cpu time spent up to now is       15.1 secs

     total energy              =    -339.39499260 Ry
     estimated scf accuracy    <       0.92057712 Ry

     total magnetization       =     0.55 Bohr mag/cell
     absolute magnetization    =     1.59 Bohr mag/cell

     iteration #  9     ecut=    60.00 Ry     beta= 0.70
     Davidson diagonalization with overlap
     ethr =  1.95E-03,  avg # of iterations =  1.0

     total cpu time spent up to now is       16.4 secs

     total energy              =    -339.40246583 Ry
     estimated scf accuracy    <       0.55671469 Ry

     total magnetization       =     0.55 Bohr mag/cell
     absolute magnetization    =     1.28 Bohr mag/cell

     iteration # 10     ecut=    60.00 Ry     beta= 0.70
     Davidson diagonalization with overlap
     ethr =  1.95E-03,  avg # of iterations =  1.0

     total cpu time spent up to now is       17.6 secs

     total energy              =    -339.36709505 Ry
     estimated scf accuracy    <       1.30022559 Ry

     total magnetization       =     0.55 Bohr mag/cell
     absolute magnetization    =     1.85 Bohr mag/cell

     iteration # 11     ecut=    60.00 Ry     beta= 0.70
     Davidson diagonalization with overlap
     ethr =  1.95E-03,  avg # of iterations =  1.9

     total cpu time spent up to now is       19.2 secs

     total energy              =    -339.39380933 Ry
     estimated scf accuracy    <       0.20550295 Ry

     total magnetization       =     0.50 Bohr mag/cell
     absolute magnetization    =     0.91 Bohr mag/cell

     iteration # 12     ecut=    60.00 Ry     beta= 0.70
     Davidson diagonalization with overlap
     ethr =  1.14E-03,  avg # of iterations =  1.0

     total cpu time spent up to now is       20.4 secs

     total energy              =    -339.39529920 Ry
     estimated scf accuracy    <       0.02919934 Ry

     total magnetization       =     0.50 Bohr mag/cell
     absolute magnetization    =     0.56 Bohr mag/cell

     iteration # 13     ecut=    60.00 Ry     beta= 0.70
     Davidson diagonalization with overlap
     ethr =  1.62E-04,  avg # of iterations =  1.0

     total cpu time spent up to now is       21.7 secs

     total energy              =    -339.39584554 Ry
     estimated scf accuracy    <       0.00312082 Ry

     total magnetization       =     0.49 Bohr mag/cell
     absolute magnetization    =     0.53 Bohr mag/cell

     iteration # 14     ecut=    60.00 Ry     beta= 0.70
     Davidson diagonalization with overlap
     ethr =  1.73E-05,  avg # of iterations =  1.1

     total cpu time spent up to now is       23.0 secs

     total energy              =    -339.39592074 Ry
     estimated scf accuracy    <       0.00081375 Ry

     total magnetization       =     0.49 Bohr mag/cell
     absolute magnetization    =     0.53 Bohr mag/cell

     iteration # 15     ecut=    60.00 Ry     beta= 0.70
     Davidson diagonalization with overlap
     ethr =  4.52E-06,  avg # of iterations =  1.2

     total cpu time spent up to now is       24.3 secs

     total energy              =    -339.39597272 Ry
     estimated scf accuracy    <       0.00018778 Ry

     total magnetization       =     0.48 Bohr mag/cell
     absolute magnetization    =     0.52 Bohr mag/cell

     iteration # 16     ecut=    60.00 Ry     beta= 0.70
     Davidson diagonalization with overlap
     ethr =  1.04E-06,  avg # of iterations =  1.1

     total cpu time spent up to now is       25.6 secs

     total energy              =    -339.39597194 Ry
     estimated scf accuracy    <       0.00026446 Ry

     total magnetization       =     0.48 Bohr mag/cell
     absolute magnetization    =     0.52 Bohr mag/cell

     iteration # 17     ecut=    60.00 Ry     beta= 0.70
     Davidson diagonalization with overlap
     ethr =  1.04E-06,  avg # of iterations =  1.4

     total cpu time spent up to now is       26.9 secs

     total energy              =    -339.39596730 Ry
     estimated scf accuracy    <       0.00045859 Ry

     total magnetization       =     0.48 Bohr mag/cell
     absolute magnetization    =     0.52 Bohr mag/cell

     iteration # 18     ecut=    60.00 Ry     beta= 0.70
     Davidson diagonalization with overlap
     ethr =  1.04E-06,  avg # of iterations =  1.0

     total cpu time spent up to now is       28.2 secs

     total energy              =    -339.39597319 Ry
     estimated scf accuracy    <       0.00006592 Ry

     total magnetization       =     0.48 Bohr mag/cell
     absolute magnetization    =     0.51 Bohr mag/cell

     iteration # 19     ecut=    60.00 Ry     beta= 0.70
     Davidson diagonalization with overlap
     ethr =  3.66E-07,  avg # of iterations =  1.0

     total cpu time spent up to now is       29.4 secs

     total energy              =    -339.39597442 Ry
     estimated scf accuracy    <       0.00000910 Ry

     total magnetization       =     0.48 Bohr mag/cell
     absolute magnetization    =     0.51 Bohr mag/cell

     iteration # 20     ecut=    60.00 Ry     beta= 0.70
     Davidson diagonalization with overlap
     ethr =  5.06E-08,  avg # of iterations =  1.3

     total cpu time spent up to now is       30.8 secs

     total energy              =    -339.39597520 Ry
     estimated scf accuracy    <       0.00001128 Ry

     total magnetization       =     0.48 Bohr mag/cell
     absolute magnetization    =     0.51 Bohr mag/cell

     iteration # 21     ecut=    60.00 Ry     beta= 0.70
     Davidson diagonalization with overlap
     ethr =  5.06E-08,  avg # of iterations =  2.0

     total cpu time spent up to now is       32.3 secs

     total energy              =    -339.39597335 Ry
     estimated scf accuracy    <       0.00008255 Ry

     total magnetization       =     0.48 Bohr mag/cell
     absolute magnetization    =     0.51 Bohr mag/cell

     iteration # 22     ecut=    60.00 Ry     beta= 0.70
     Davidson diagonalization with overlap
     ethr =  5.06E-08,  avg # of iterations =  2.0

     Magnetic moment per site  (integrated on atomic sphere of radius R)
     atom   1 (R=0.413)  charge= 15.8051  magn=  0.4841

     total cpu time spent up to now is       33.8 secs

     End of self-consistent calculation

     Number of k-points >= 100: set verbosity='high' to print the bands.

     the Fermi energy is    18.8269 ev

!    total energy              =    -339.39597493 Ry
     estimated scf accuracy    <       0.00000046 Ry
     smearing contrib. (-TS)   =       0.00002995 Ry
     internal energy E=F+TS    =    -339.39600488 Ry

     The total energy is F=E-TS. E is the sum of the following terms:
     one-electron contribution =    -221.79635076 Ry
     hartree contribution      =     122.67347126 Ry
     xc contribution           =     -34.58062890 Ry
     ewald contribution        =    -205.69249647 Ry

     total magnetization       =     0.48 Bohr mag/cell
     absolute magnetization    =     0.51 Bohr mag/cell

     convergence has been achieved in  22 iterations

     Forces acting on atoms (cartesian axes, Ry/au):

     atom    1 type  1   force =     0.00000000    0.00000000    0.00000000

     Total force =     0.000000     Total SCF correction =     0.000794


     Computing stress (Cartesian axis) and pressure

          total   stress  (Ry/bohr**3)                   (kbar)     P=     1306.24
   0.01384181   0.00000013  -0.00000009         2036.20        0.02       -0.01
   0.00000013   0.01384151  -0.00000001            0.02     2036.16       -0.00
  -0.00000009  -0.00000001  -0.00104434           -0.01       -0.00     -153.63


     BFGS Geometry Optimization
     Energy error            =      0.0E+00 Ry
     Gradient error          =      0.0E+00 Ry/Bohr
     Cell gradient error     =      2.0E+03 kbar

     number of scf cycles    =   1
     number of bfgs steps    =   0

     enthalpy           new  =    -339.3959749279 Ry

     new trust radius        =       0.5000000000 bohr
     new conv_thr            =       0.0000010000 Ry

     new unit-cell volume =    115.58876 a.u.^3 (    17.12849 Ang^3 )
     density =      5.69009 g/cm^3

CELL_PARAMETERS (bohr)
   4.907726152   0.000010236  -0.000007499
  -2.453854211   4.250189322   0.000002814
  -0.000011248  -0.000001620   5.541489037

ATOMIC_POSITIONS (crystal)
Ni            0.0000000000        0.0000000000        0.0000000000



     Writing config-only to output data dir ./out/pwscf.save/
     NEW-OLD atomic charge density approx. for the potential

     Check: negative core charge=   -0.000005
     extrapolated charge   25.07883, renormalised to   18.00000
     Generating pointlists ...

     total cpu time spent up to now is       34.3 secs

     Self-consistent Calculation

     iteration #  1     ecut=    60.00 Ry     beta= 0.70
     Davidson diagonalization with overlap
     c_bands:  1 eigenvalues not converged
     c_bands:  1 eigenvalues not converged
     c_bands:  1 eigenvalues not converged
     c_bands:  1 eigenvalues not converged
     c_bands:  1 eigenvalues not converged
     c_bands:  1 eigenvalues not converged
     c_bands:  1 eigenvalues not converged
     c_bands:  1 eigenvalues not converged
     c_bands:  1 eigenvalues not converged
     c_bands:  1 eigenvalues not converged
     c_bands:  1 eigenvalues not converged
     c_bands:  1 eigenvalues not converged
     c_bands:  1 eigenvalues not converged
     c_bands:  1 eigenvalues not converged
     c_bands:  1 eigenvalues not converged
     c_bands:  1 eigenvalues not converged
     c_bands:  1 eigenvalues not converged
     c_bands:  1 eigenvalues not converged
     c_bands:  1 eigenvalues not converged
     c_bands:  1 eigenvalues not converged
     c_bands:  1 eigenvalues not converged
     c_bands:  1 eigenvalues not converged
     c_bands:  1 eigenvalues not converged
     c_bands:  1 eigenvalues not converged
     c_bands:  1 eigenvalues not converged
     c_bands:  1 eigenvalues not converged
     c_bands:  1 eigenvalues not converged
     c_bands:  1 eigenvalues not converged
     c_bands:  1 eigenvalues not converged
     c_bands:  1 eigenvalues not converged
     c_bands:  1 eigenvalues not converged
     c_bands:  1 eigenvalues not converged
     c_bands:  1 eigenvalues not converged
     c_bands:  1 eigenvalues not converged
     c_bands:  1 eigenvalues not converged
     c_bands:  1 eigenvalues not converged
     c_bands:  1 eigenvalues not converged
     c_bands:  1 eigenvalues not converged
     c_bands:  1 eigenvalues not converged
     c_bands:  1 eigenvalues not converged
     c_bands:  1 eigenvalues not converged
     c_bands:  1 eigenvalues not converged
     c_bands:  1 eigenvalues not converged
     c_bands:  1 eigenvalues not converged
     c_bands:  1 eigenvalues not converged
     c_bands:  1 eigenvalues not converged
     c_bands:  1 eigenvalues not converged
     c_bands:  1 eigenvalues not converged
     c_bands:  1 eigenvalues not converged
     c_bands:  1 eigenvalues not converged
     c_bands:  1 eigenvalues not converged
     c_bands:  1 eigenvalues not converged
     c_bands:  1 eigenvalues not converged
     c_bands:  1 eigenvalues not converged
     c_bands:  1 eigenvalues not converged
     c_bands:  1 eigenvalues not converged
     c_bands:  1 eigenvalues not converged
     c_bands:  1 eigenvalues not converged
     c_bands:  1 eigenvalues not converged
     c_bands:  1 eigenvalues not converged
     c_bands:  1 eigenvalues not converged
     c_bands:  1 eigenvalues not converged
     c_bands:  1 eigenvalues not converged
     c_bands:  1 eigenvalues not converged
     c_bands:  1 eigenvalues not converged
     c_bands:  1 eigenvalues not converged
     c_bands:  1 eigenvalues not converged
     c_bands:  1 eigenvalues not converged
     c_bands:  1 eigenvalues not converged
     c_bands:  1 eigenvalues not converged
     c_bands:  1 eigenvalues not converged
     c_bands:  1 eigenvalues not converged
     c_bands:  1 eigenvalues not converged
     c_bands:  1 eigenvalues not converged
     c_bands:  1 eigenvalues not converged
     c_bands:  1 eigenvalues not converged
     c_bands:  1 eigenvalues not converged
     c_bands:  1 eigenvalues not converged
     c_bands:  1 eigenvalues not converged
     c_bands:  1 eigenvalues not converged
     c_bands:  1 eigenvalues not converged
     c_bands:  1 eigenvalues not converged
     c_bands:  1 eigenvalues not converged
     c_bands:  1 eigenvalues not converged
     c_bands:  1 eigenvalues not converged
     c_bands:  1 eigenvalues not converged
     c_bands:  1 eigenvalues not converged
     c_bands:  1 eigenvalues not converged
     c_bands:  1 eigenvalues not converged
     c_bands:  1 eigenvalues not converged
     c_bands:  1 eigenvalues not converged
     c_bands:  1 eigenvalues not converged
     c_bands:  1 eigenvalues not converged
     c_bands:  1 eigenvalues not converged
     c_bands:  1 eigenvalues not converged
     c_bands:  1 eigenvalues not converged
     c_bands:  1 eigenvalues not converged
     c_bands:  1 eigenvalues not converged
     c_bands:  1 eigenvalues not converged
     c_bands:  1 eigenvalues not converged
     c_bands:  1 eigenvalues not converged
     c_bands:  1 eigenvalues not converged
     c_bands:  1 eigenvalues not converged
     c_bands:  1 eigenvalues not converged
     c_bands:  1 eigenvalues not converged
     c_bands:  1 eigenvalues not converged
     c_bands:  1 eigenvalues not converged
     c_bands:  1 eigenvalues not converged
     c_bands:  1 eigenvalues not converged
     c_bands:  1 eigenvalues not converged
     c_bands:  1 eigenvalues not converged
     c_bands:  1 eigenvalues not converged
     c_bands:  1 eigenvalues not converged
     c_bands:  1 eigenvalues not converged
     c_bands:  1 eigenvalues not converged
     c_bands:  1 eigenvalues not converged
     c_bands:  1 eigenvalues not converged
     c_bands:  1 eigenvalues not converged
     c_bands:  1 eigenvalues not converged
     c_bands:  1 eigenvalues not converged
     c_bands:  1 eigenvalues not converged
     c_bands:  1 eigenvalues not converged
     c_bands:  1 eigenvalues not converged
     c_bands:  1 eigenvalues not converged
     c_bands:  1 eigenvalues not converged
     c_bands:  1 eigenvalues not converged
     c_bands:  1 eigenvalues not converged
     c_bands:  1 eigenvalues not converged
     c_bands:  1 eigenvalues not converged
     c_bands:  1 eigenvalues not converged
     c_bands:  1 eigenvalues not converged
     c_bands:  1 eigenvalues not converged
     c_bands:  1 eigenvalues not converged
     c_bands:  1 eigenvalues not converged
     c_bands:  1 eigenvalues not converged
     c_bands:  1 eigenvalues not converged
     c_bands:  1 eigenvalues not converged
     c_bands:  1 eigenvalues not converged
     c_bands:  1 eigenvalues not converged
     c_bands:  1 eigenvalues not converged
     c_bands:  1 eigenvalues not converged
     c_bands:  1 eigenvalues not converged
     c_bands:  1 eigenvalues not converged
     c_bands:  1 eigenvalues not converged
     c_bands:  1 eigenvalues not converged
     c_bands:  1 eigenvalues not converged
     c_bands:  1 eigenvalues not converged
     c_bands:  1 eigenvalues not converged
     c_bands:  1 eigenvalues not converged
     c_bands:  1 eigenvalues not converged
     c_bands:  1 eigenvalues not converged
     c_bands:  1 eigenvalues not converged
     c_bands:  1 eigenvalues not converged
     c_bands:  1 eigenvalues not converged
     c_bands:  1 eigenvalues not converged
     c_bands:  1 eigenvalues not converged
     c_bands:  1 eigenvalues not converged
     c_bands:  1 eigenvalues not converged
     c_bands:  1 eigenvalues not converged
     c_bands:  1 eigenvalues not converged
     c_bands:  1 eigenvalues not converged
     c_bands:  1 eigenvalues not converged
     c_bands:  1 eigenvalues not converged
     c_bands:  1 eigenvalues not converged
     c_bands:  1 eigenvalues not converged
     c_bands:  1 eigenvalues not converged
     c_bands:  1 eigenvalues not converged
     c_bands:  1 eigenvalues not converged
     c_bands:  1 eigenvalues not converged
     c_bands:  1 eigenvalues not converged
     c_bands:  1 eigenvalues not converged
     c_bands:  1 eigenvalues not converged
     c_bands:  1 eigenvalues not converged
     c_bands:  1 eigenvalues not converged
     c_bands:  1 eigenvalues not converged
     c_bands:  1 eigenvalues not converged
     c_bands:  1 eigenvalues not converged
     c_bands:  1 eigenvalues not converged
     c_bands:  1 eigenvalues not converged
     c_bands:  1 eigenvalues not converged
     c_bands:  1 eigenvalues not converged
     c_bands:  1 eigenvalues not converged
     c_bands:  1 eigenvalues not converged
     c_bands:  1 eigenvalues not converged
     c_bands:  1 eigenvalues not converged
     c_bands:  1 eigenvalues not converged
     c_bands:  1 eigenvalues not converged
     ethr =  1.00E-06,  avg # of iterations = 17.8

     total cpu time spent up to now is       42.8 secs

     total energy              =    -280.17035241 Ry
     estimated scf accuracy    <      58.95311335 Ry

     total magnetization       =     0.02 Bohr mag/cell
     absolute magnetization    =     0.06 Bohr mag/cell

     iteration #  2     ecut=    60.00 Ry     beta= 0.70
     Davidson diagonalization with overlap
     ethr =  1.00E-02,  avg # of iterations =  4.7

     total cpu time spent up to now is       45.8 secs

     total energy              =    -346.34739060 Ry
     estimated scf accuracy    <      69.09799212 Ry

     total magnetization       =     0.00 Bohr mag/cell
     absolute magnetization    =     0.10 Bohr mag/cell

     iteration #  3     ecut=    60.00 Ry     beta= 0.70
     Davidson diagonalization with overlap
     ethr =  1.00E-02,  avg # of iterations =  2.1

     total cpu time spent up to now is       47.6 secs

     total energy              =    -342.71286198 Ry
     estimated scf accuracy    <      25.71792207 Ry

     total magnetization       =    -0.00 Bohr mag/cell
     absolute magnetization    =     1.32 Bohr mag/cell

     iteration #  4     ecut=    60.00 Ry     beta= 0.70
     Davidson diagonalization with overlap
     ethr =  1.00E-02,  avg # of iterations =  2.7

     negative rho (up, down):  1.585E+00 1.623E+00

     total cpu time spent up to now is       49.5 secs

     total energy              =    -333.37554905 Ry
     estimated scf accuracy    <     367.38786710 Ry

     total magnetization       =    -0.00 Bohr mag/cell
     absolute magnetization    =    27.65 Bohr mag/cell

     iteration #  5     ecut=    60.00 Ry     beta= 0.70
     Davidson diagonalization with overlap
     ethr =  1.00E-02,  avg # of iterations =  2.0

     negative rho (up, down):  5.425E-01 5.920E-01

     total cpu time spent up to now is       51.0 secs

     total energy              =    -341.04005894 Ry
     estimated scf accuracy    <      25.31008183 Ry

     total magnetization       =     0.00 Bohr mag/cell
     absolute magnetization    =     5.79 Bohr mag/cell

     iteration #  6     ecut=    60.00 Ry     beta= 0.70
     Davidson diagonalization with overlap
     ethr =  1.00E-02,  avg # of iterations =  2.0

     negative rho (up, down):  1.193E+00 1.126E+00

     total cpu time spent up to now is       52.5 secs

     total energy              =    -338.59589939 Ry
     estimated scf accuracy    <      79.12336431 Ry

     total magnetization       =     0.00 Bohr mag/cell
     absolute magnetization    =    11.95 Bohr mag/cell

     iteration #  7     ecut=    60.00 Ry     beta= 0.70
     Davidson diagonalization with overlap
     ethr =  1.00E-02,  avg # of iterations =  2.0

     negative rho (up, down):  1.291E+00 1.105E+00

     total cpu time spent up to now is       54.0 secs

     total energy              =    -338.08147322 Ry
     estimated scf accuracy    <      68.34680734 Ry

     total magnetization       =    -0.00 Bohr mag/cell
     absolute magnetization    =    11.05 Bohr mag/cell

     iteration #  8     ecut=    60.00 Ry     beta= 0.70
     Davidson diagonalization with overlap
     ethr =  1.00E-02,  avg # of iterations =  2.1

     negative rho (up, down):  1.428E+00 1.010E+00

     total cpu time spent up to now is       55.6 secs

     total energy              =    -338.35436226 Ry
     estimated scf accuracy    <      75.45516802 Ry

     total magnetization       =    -0.00 Bohr mag/cell
     absolute magnetization    =    11.84 Bohr mag/cell

     iteration #  9     ecut=    60.00 Ry     beta= 0.70
     Davidson diagonalization with overlap
     ethr =  1.00E-02,  avg # of iterations =  1.3

     negative rho (up, down):  1.325E+00 1.186E+00

     total cpu time spent up to now is       56.9 secs

     total energy              =    -338.68597630 Ry
     estimated scf accuracy    <      70.65195110 Ry

     total magnetization       =     0.00 Bohr mag/cell
     absolute magnetization    =    11.58 Bohr mag/cell

     iteration # 10     ecut=    60.00 Ry     beta= 0.70
     Davidson diagonalization with overlap
     ethr =  1.00E-02,  avg # of iterations =  2.0

     negative rho (up, down):  1.962E+00 1.629E+00

     total cpu time spent up to now is       58.5 secs

     total energy              =    -336.69308551 Ry
     estimated scf accuracy    <     103.96372859 Ry

     total magnetization       =     0.00 Bohr mag/cell
     absolute magnetization    =    14.20 Bohr mag/cell

     iteration # 11     ecut=    60.00 Ry     beta= 0.70
     Davidson diagonalization with overlap
     ethr =  1.00E-02,  avg # of iterations =  2.1

     negative rho (up, down):  2.595E+00 1.692E+00

     total cpu time spent up to now is       60.2 secs

     total energy              =    -338.45989064 Ry
     estimated scf accuracy    <     145.43491736 Ry

     total magnetization       =     0.19 Bohr mag/cell
     absolute magnetization    =    17.07 Bohr mag/cell

     iteration # 12     ecut=    60.00 Ry     beta= 0.70
     Davidson diagonalization with overlap
     ethr =  1.00E-02,  avg # of iterations =  2.0

     negative rho (up, down):  4.039E+00 2.492E+00

     total cpu time spent up to now is       61.8 secs

     total energy              =    -339.80026124 Ry
     estimated scf accuracy    <     230.63327505 Ry

     total magnetization       =     0.71 Bohr mag/cell
     absolute magnetization    =    19.27 Bohr mag/cell

     iteration # 13     ecut=    60.00 Ry     beta= 0.70
     Davidson diagonalization with overlap
     ethr =  1.00E-02,  avg # of iterations =  2.5

     negative rho (up, down):  4.318E+00 4.522E+00

     total cpu time spent up to now is       63.6 secs

     total energy              =    -349.22630651 Ry
     estimated scf accuracy    <     332.55620061 Ry

     total magnetization       =     0.26 Bohr mag/cell
     absolute magnetization    =    13.92 Bohr mag/cell

     iteration # 14     ecut=    60.00 Ry     beta= 0.70
     Davidson diagonalization with overlap
     ethr =  1.00E-02,  avg # of iterations =  2.0

     negative rho (up, down):  6.061E+00 6.754E+00

     total cpu time spent up to now is       65.2 secs

     total energy              =    -379.94478923 Ry
     estimated scf accuracy    <     442.99460138 Ry

     total magnetization       =     0.07 Bohr mag/cell
     absolute magnetization    =    16.94 Bohr mag/cell

     iteration # 15     ecut=    60.00 Ry     beta= 0.70
     Davidson diagonalization with overlap
     ethr =  1.00E-02,  avg # of iterations =  3.6

     negative rho (up, down):  8.932E+00 9.918E+00

     total cpu time spent up to now is       67.3 secs

     total energy              =    -405.73768653 Ry
     estimated scf accuracy    <     920.39075650 Ry

     total magnetization       =     0.02 Bohr mag/cell
     absolute magnetization    =     9.51 Bohr mag/cell

     iteration # 16     ecut=    60.00 Ry     beta= 0.70
     Davidson diagonalization with overlap
     ethr =  1.00E-02,  avg # of iterations =  2.2

     negative rho (up, down):  9.373E+00 1.026E+01

     total cpu time spent up to now is       69.0 secs

     total energy              =    -308.57618809 Ry
     estimated scf accuracy    <     960.57927478 Ry

     total magnetization       =     0.06 Bohr mag/cell
     absolute magnetization    =     6.82 Bohr mag/cell

     iteration # 17     ecut=    60.00 Ry     beta= 0.70
     Davidson diagonalization with overlap
     ethr =  1.00E-02,  avg # of iterations =  3.1

     negative rho (up, down):  3.254E-01 2.653E+00

     total cpu time spent up to now is       71.2 secs

     total energy              =    -334.75638194 Ry
     estimated scf accuracy    <     127.51716539 Ry

     total magnetization       =    -0.17 Bohr mag/cell
     absolute magnetization    =     8.58 Bohr mag/cell

     iteration # 18     ecut=    60.00 Ry     beta= 0.70
     Davidson diagonalization with overlap
     ethr =  1.00E-02,  avg # of iterations =  3.0

     negative rho (up, down):  1.379E-01 3.170E+00

     total cpu time spent up to now is       73.3 secs

     total energy              =    -338.12461109 Ry
     estimated scf accuracy    <     111.16009340 Ry

     total magnetization       =     0.16 Bohr mag/cell
     absolute magnetization    =    14.41 Bohr mag/cell

     iteration # 19     ecut=    60.00 Ry     beta= 0.70
     Davidson diagonalization with overlap
     ethr =  1.00E-02,  avg # of iterations =  2.0

     negative rho (up, down):  1.502E+00 3.409E+00

     total cpu time spent up to now is       74.8 secs

     total energy              =    -337.46993781 Ry
     estimated scf accuracy    <     166.84921319 Ry

     total magnetization       =    -0.17 Bohr mag/cell
     absolute magnetization    =    18.63 Bohr mag/cell

     iteration # 20     ecut=    60.00 Ry     beta= 0.70
     Davidson diagonalization with overlap
     ethr =  1.00E-02,  avg # of iterations =  1.5

     negative rho (up, down):  1.875E+00 3.630E+00

     total cpu time spent up to now is       76.4 secs

     total energy              =    -335.82548109 Ry
     estimated scf accuracy    <     191.45445935 Ry

     total magnetization       =    -0.59 Bohr mag/cell
     absolute magnetization    =    19.04 Bohr mag/cell

     iteration # 21     ecut=    60.00 Ry     beta= 0.70
     Davidson diagonalization with overlap
     ethr =  1.00E-02,  avg # of iterations =  2.0

     negative rho (up, down):  5.280E-01 4.369E+00

     total cpu time spent up to now is       78.0 secs

     total energy              =    -336.28437938 Ry
     estimated scf accuracy    <     167.14614609 Ry

     total magnetization       =    -0.55 Bohr mag/cell
     absolute magnetization    =    15.13 Bohr mag/cell

     iteration # 22     ecut=    60.00 Ry     beta= 0.70
     Davidson diagonalization with overlap
     ethr =  1.00E-02,  avg # of iterations =  2.0

     negative rho (up, down):  2.264E+00 3.893E+00

     total cpu time spent up to now is       79.6 secs

     total energy              =    -329.02464089 Ry
     estimated scf accuracy    <     236.34416162 Ry

     total magnetization       =     0.28 Bohr mag/cell
     absolute magnetization    =    22.10 Bohr mag/cell

     iteration # 23     ecut=    60.00 Ry     beta= 0.70
     Davidson diagonalization with overlap
     ethr =  1.00E-02,  avg # of iterations =  3.0

     negative rho (up, down):  2.200E+00 3.640E-01

     total cpu time spent up to now is       81.6 secs

     total energy              =    -338.36306091 Ry
     estimated scf accuracy    <     201.80800235 Ry

     total magnetization       =    -0.00 Bohr mag/cell
     absolute magnetization    =    14.26 Bohr mag/cell

     iteration # 24     ecut=    60.00 Ry     beta= 0.70
     Davidson diagonalization with overlap
     ethr =  1.00E-02,  avg # of iterations =  2.0

     negative rho (up, down):  2.556E+00 1.392E+00

     total cpu time spent up to now is       83.2 secs

     total energy              =    -338.50336839 Ry
     estimated scf accuracy    <     175.00036696 Ry

     total magnetization       =    -0.22 Bohr mag/cell
     absolute magnetization    =    18.79 Bohr mag/cell

     iteration # 25     ecut=    60.00 Ry     beta= 0.70
     Davidson diagonalization with overlap
     ethr =  1.00E-02,  avg # of iterations =  2.0

     negative rho (up, down):  3.297E+00 1.535E+00

     total cpu time spent up to now is       84.7 secs

     total energy              =    -337.20492159 Ry
     estimated scf accuracy    <     194.00614498 Ry

     total magnetization       =     0.24 Bohr mag/cell
     absolute magnetization    =    19.99 Bohr mag/cell

     iteration # 26     ecut=    60.00 Ry     beta= 0.70
     Davidson diagonalization with overlap
     ethr =  1.00E-02,  avg # of iterations =  2.0

     negative rho (up, down):  3.055E+00 1.807E+00

     total cpu time spent up to now is       86.3 secs

     total energy              =    -335.50109407 Ry
     estimated scf accuracy    <     188.49154965 Ry

     total magnetization       =     0.33 Bohr mag/cell
     absolute magnetization    =    19.98 Bohr mag/cell

     iteration # 27     ecut=    60.00 Ry     beta= 0.70
     Davidson diagonalization with overlap
     ethr =  1.00E-02,  avg # of iterations =  2.0

     negative rho (up, down):  4.499E+00 1.007E+00

     total cpu time spent up to now is       88.0 secs

     total energy              =    -335.98674609 Ry
     estimated scf accuracy    <     211.12837473 Ry

     total magnetization       =    -0.33 Bohr mag/cell
     absolute magnetization    =    18.01 Bohr mag/cell

     iteration # 28     ecut=    60.00 Ry     beta= 0.70
     Davidson diagonalization with overlap
     ethr =  1.00E-02,  avg # of iterations =  2.0

     negative rho (up, down):  4.595E+00 7.927E-01

     total cpu time spent up to now is       89.6 secs

     total energy              =    -335.41522434 Ry
     estimated scf accuracy    <     187.76752233 Ry

     total magnetization       =    -0.07 Bohr mag/cell
     absolute magnetization    =    16.49 Bohr mag/cell

     iteration # 29     ecut=    60.00 Ry     beta= 0.70
     Davidson diagonalization with overlap
     ethr =  1.00E-02,  avg # of iterations =  2.0

     negative rho (up, down):  4.700E+00 1.923E-01

     total cpu time spent up to now is       91.2 secs

     total energy              =    -336.71005703 Ry
     estimated scf accuracy    <     184.62782650 Ry

     total magnetization       =     0.19 Bohr mag/cell
     absolute magnetization    =    17.22 Bohr mag/cell

     iteration # 30     ecut=    60.00 Ry     beta= 0.70
     Davidson diagonalization with overlap
     ethr =  1.00E-02,  avg # of iterations =  2.0

     negative rho (up, down):  4.574E+00 1.003E+00

     total cpu time spent up to now is       92.8 secs

     total energy              =    -336.51917941 Ry
     estimated scf accuracy    <     195.37820591 Ry

     total magnetization       =    -0.18 Bohr mag/cell
     absolute magnetization    =    17.68 Bohr mag/cell

     iteration # 31     ecut=    60.00 Ry     beta= 0.70
     Davidson diagonalization with overlap
     ethr =  1.00E-02,  avg # of iterations =  2.0

     negative rho (up, down):  4.176E+00 1.652E+00

     total cpu time spent up to now is       94.3 secs

     total energy              =    -331.32540275 Ry
     estimated scf accuracy    <     193.39969836 Ry

     total magnetization       =    -0.53 Bohr mag/cell
     absolute magnetization    =    19.00 Bohr mag/cell

     iteration # 32     ecut=    60.00 Ry     beta= 0.70
     Davidson diagonalization with overlap
     ethr =  1.00E-02,  avg # of iterations =  2.2

     negative rho (up, down):  3.232E+00 1.934E+00

     total cpu time spent up to now is       96.0 secs

     total energy              =    -329.77374060 Ry
     estimated scf accuracy    <     233.52785552 Ry

     total magnetization       =    -0.58 Bohr mag/cell
     absolute magnetization    =    22.70 Bohr mag/cell

     iteration # 33     ecut=    60.00 Ry     beta= 0.70
     Davidson diagonalization with overlap
     ethr =  1.00E-02,  avg # of iterations =  2.5

     negative rho (up, down):  3.441E+00 6.129E-01

     total cpu time spent up to now is       97.9 secs

     total energy              =    -336.20199731 Ry
     estimated scf accuracy    <     164.09221586 Ry

     total magnetization       =     0.86 Bohr mag/cell
     absolute magnetization    =    13.44 Bohr mag/cell

     iteration # 34     ecut=    60.00 Ry     beta= 0.70
     Davidson diagonalization with overlap
     ethr =  1.00E-02,  avg # of iterations =  2.1

     negative rho (up, down):  3.381E+00 3.807E-01

     total cpu time spent up to now is       99.6 secs

     total energy              =    -335.28585673 Ry
     estimated scf accuracy    <     136.36764076 Ry

     total magnetization       =     1.02 Bohr mag/cell
     absolute magnetization    =    14.79 Bohr mag/cell

     iteration # 35     ecut=    60.00 Ry     beta= 0.70
     Davidson diagonalization with overlap
     ethr =  1.00E-02,  avg # of iterations =  2.1

     negative rho (up, down):  3.122E+00 1.362E+00

     total cpu time spent up to now is      101.3 secs

     total energy              =    -339.84859998 Ry
     estimated scf accuracy    <     183.85185934 Ry

     total magnetization       =    -0.50 Bohr mag/cell
     absolute magnetization    =    19.67 Bohr mag/cell

     iteration # 36     ecut=    60.00 Ry     beta= 0.70
     Davidson diagonalization with overlap
     ethr =  1.00E-02,  avg # of iterations =  2.4

     negative rho (up, down):  2.580E+00 4.327E+00

     total cpu time spent up to now is      103.0 secs

     total energy              =    -337.89134891 Ry
     estimated scf accuracy    <     320.48796988 Ry

     total magnetization       =    -1.05 Bohr mag/cell
     absolute magnetization    =    26.52 Bohr mag/cell

     iteration # 37     ecut=    60.00 Ry     beta= 0.70
     Davidson diagonalization with overlap
     ethr =  1.00E-02,  avg # of iterations =  2.0

     negative rho (up, down):  2.168E+00 4.973E+00

     total cpu time spent up to now is      104.5 secs

     total energy              =    -335.03446221 Ry
     estimated scf accuracy    <     253.41382319 Ry

     total magnetization       =    -1.54 Bohr mag/cell
     absolute magnetization    =    22.82 Bohr mag/cell

     iteration # 38     ecut=    60.00 Ry     beta= 0.70
     Davidson diagonalization with overlap
     ethr =  1.00E-02,  avg # of iterations =  2.0

     negative rho (up, down):  1.744E+00 4.531E+00

     total cpu time spent up to now is      106.1 secs

     total energy              =    -323.73603332 Ry
     estimated scf accuracy    <     182.16908981 Ry

     total magnetization       =    -1.96 Bohr mag/cell
     absolute magnetization    =    17.22 Bohr mag/cell

     iteration # 39     ecut=    60.00 Ry     beta= 0.70
     Davidson diagonalization with overlap
     ethr =  1.00E-02,  avg # of iterations =  2.9

     negative rho (up, down):  8.606E-01 1.318E+00

     total cpu time spent up to now is      108.0 secs

     total energy              =    -339.95410731 Ry
     estimated scf accuracy    <     193.17061203 Ry

     total magnetization       =    -1.33 Bohr mag/cell
     absolute magnetization    =    19.86 Bohr mag/cell

     iteration # 40     ecut=    60.00 Ry     beta= 0.70
     Davidson diagonalization with overlap
     ethr =  1.00E-02,  avg # of iterations =  2.0

     negative rho (up, down):  1.861E+00 2.841E+00

     total cpu time spent up to now is      109.6 secs

     total energy              =    -336.67007078 Ry
     estimated scf accuracy    <     202.35461422 Ry

     total magnetization       =    -1.01 Bohr mag/cell
     absolute magnetization    =    21.06 Bohr mag/cell

     iteration # 41     ecut=    60.00 Ry     beta= 0.70
     Davidson diagonalization with overlap
     ethr =  1.00E-02,  avg # of iterations =  2.0

     negative rho (up, down):  1.541E+00 3.232E+00

     total cpu time spent up to now is      111.2 secs

     total energy              =    -337.52695870 Ry
     estimated scf accuracy    <     141.69232127 Ry

     total magnetization       =    -1.04 Bohr mag/cell
     absolute magnetization    =    16.98 Bohr mag/cell

     iteration # 42     ecut=    60.00 Ry     beta= 0.70
     Davidson diagonalization with overlap
     ethr =  1.00E-02,  avg # of iterations =  2.0

     negative rho (up, down):  1.852E+00 3.908E+00

     total cpu time spent up to now is      112.7 secs

     total energy              =    -333.92876092 Ry
     estimated scf accuracy    <     197.33429155 Ry

     total magnetization       =    -0.77 Bohr mag/cell
     absolute magnetization    =    19.75 Bohr mag/cell

     iteration # 43     ecut=    60.00 Ry     beta= 0.70
     Davidson diagonalization with overlap
     ethr =  1.00E-02,  avg # of iterations =  2.0

     negative rho (up, down):  1.928E+00 2.620E+00

     total cpu time spent up to now is      114.3 secs

     total energy              =    -334.21152712 Ry
     estimated scf accuracy    <     102.47907239 Ry

     total magnetization       =    -0.34 Bohr mag/cell
     absolute magnetization    =    13.80 Bohr mag/cell

     iteration # 44     ecut=    60.00 Ry     beta= 0.70
     Davidson diagonalization with overlap
     ethr =  1.00E-02,  avg # of iterations =  2.0

     negative rho (up, down):  1.074E+00 1.257E+00

     total cpu time spent up to now is      115.9 secs

     total energy              =    -337.90039713 Ry
     estimated scf accuracy    <      39.58814251 Ry

     total magnetization       =    -0.63 Bohr mag/cell
     absolute magnetization    =     9.14 Bohr mag/cell

     iteration # 45     ecut=    60.00 Ry     beta= 0.70
     Davidson diagonalization with overlap
     ethr =  1.00E-02,  avg # of iterations =  2.0

     negative rho (up, down):  1.491E+00 1.110E+00

     total cpu time spent up to now is      117.4 secs

     total energy              =    -337.17409156 Ry
     estimated scf accuracy    <      70.40189219 Ry

     total magnetization       =    -0.78 Bohr mag/cell
     absolute magnetization    =    12.46 Bohr mag/cell

     iteration # 46     ecut=    60.00 Ry     beta= 0.70
     Davidson diagonalization with overlap
     ethr =  1.00E-02,  avg # of iterations =  2.0

     negative rho (up, down):  1.275E+00 1.418E+00

     total cpu time spent up to now is      119.0 secs

     total energy              =    -338.20954383 Ry
     estimated scf accuracy    <      73.76415572 Ry

     total magnetization       =    -0.49 Bohr mag/cell
     absolute magnetization    =    12.41 Bohr mag/cell

     iteration # 47     ecut=    60.00 Ry     beta= 0.70
     Davidson diagonalization with overlap
     ethr =  1.00E-02,  avg # of iterations =  2.0

     negative rho (up, down):  2.416E+00 2.803E+00

     total cpu time spent up to now is      120.6 secs

     total energy              =    -341.94071897 Ry
     estimated scf accuracy    <     250.58241939 Ry

     total magnetization       =     0.28 Bohr mag/cell
     absolute magnetization    =    23.13 Bohr mag/cell

     iteration # 48     ecut=    60.00 Ry     beta= 0.70
     Davidson diagonalization with overlap
     ethr =  1.00E-02,  avg # of iterations =  2.6

     negative rho (up, down):  1.247E+00 6.326E+00

     total cpu time spent up to now is      122.7 secs

     total energy              =    -330.27737860 Ry
     estimated scf accuracy    <     427.03143375 Ry

     total magnetization       =     0.58 Bohr mag/cell
     absolute magnetization    =    25.61 Bohr mag/cell

     iteration # 49     ecut=    60.00 Ry     beta= 0.70
     Davidson diagonalization with overlap
     ethr =  1.00E-02,  avg # of iterations =  2.0

     negative rho (up, down):  2.450E+00 4.738E+00

     total cpu time spent up to now is      124.3 secs

     total energy              =    -334.46110107 Ry
     estimated scf accuracy    <     243.10872092 Ry

     total magnetization       =     0.35 Bohr mag/cell
     absolute magnetization    =    22.05 Bohr mag/cell

     iteration # 50     ecut=    60.00 Ry     beta= 0.70
     Davidson diagonalization with overlap
     ethr =  1.00E-02,  avg # of iterations =  2.0

     negative rho (up, down):  2.228E+00 4.014E+00

     total cpu time spent up to now is      125.8 secs

     total energy              =    -337.07378322 Ry
     estimated scf accuracy    <     184.22028433 Ry

     total magnetization       =    -0.15 Bohr mag/cell
     absolute magnetization    =    19.46 Bohr mag/cell

     iteration # 51     ecut=    60.00 Ry     beta= 0.70
     Davidson diagonalization with overlap
     ethr =  1.00E-02,  avg # of iterations =  2.0

     negative rho (up, down):  2.327E+00 4.357E+00

     total cpu time spent up to now is      127.3 secs

     total energy              =    -336.95325972 Ry
     estimated scf accuracy    <     232.36546517 Ry

     total magnetization       =     0.35 Bohr mag/cell
     absolute magnetization    =    21.18 Bohr mag/cell

     iteration # 52     ecut=    60.00 Ry     beta= 0.70
     Davidson diagonalization with overlap
     ethr =  1.00E-02,  avg # of iterations =  1.5

     negative rho (up, down):  2.443E+00 4.491E+00

     total cpu time spent up to now is      128.7 secs

     total energy              =    -338.42742960 Ry
     estimated scf accuracy    <     249.79330990 Ry

     total magnetization       =     0.42 Bohr mag/cell
     absolute magnetization    =    22.38 Bohr mag/cell

     iteration # 53     ecut=    60.00 Ry     beta= 0.70
     Davidson diagonalization with overlap
     ethr =  1.00E-02,  avg # of iterations =  2.0

     negative rho (up, down):  2.533E+00 5.416E+00

     total cpu time spent up to now is      130.2 secs

     total energy              =    -330.44106083 Ry
     estimated scf accuracy    <     306.77204274 Ry

     total magnetization       =     0.34 Bohr mag/cell
     absolute magnetization    =    23.85 Bohr mag/cell

     iteration # 54     ecut=    60.00 Ry     beta= 0.70
     Davidson diagonalization with overlap
     ethr =  1.00E-02,  avg # of iterations =  2.0

     negative rho (up, down):  2.026E+00 3.642E+00

     total cpu time spent up to now is      131.8 secs

     total energy              =    -338.08981849 Ry
     estimated scf accuracy    <     167.39030290 Ry

     total magnetization       =    -0.88 Bohr mag/cell
     absolute magnetization    =    18.94 Bohr mag/cell

     iteration # 55     ecut=    60.00 Ry     beta= 0.70
     Davidson diagonalization with overlap
     ethr =  1.00E-02,  avg # of iterations =  2.0

     negative rho (up, down):  2.663E+00 4.284E+00

     total cpu time spent up to now is      133.3 secs

     total energy              =    -328.20098386 Ry
     estimated scf accuracy    <     261.59147259 Ry

     total magnetization       =    -0.47 Bohr mag/cell
     absolute magnetization    =    23.09 Bohr mag/cell

     iteration # 56     ecut=    60.00 Ry     beta= 0.70
     Davidson diagonalization with overlap
     ethr =  1.00E-02,  avg # of iterations =  3.0

     negative rho (up, down):  4.309E+00 2.148E+00

     total cpu time spent up to now is      135.2 secs

     total energy              =    -333.20088116 Ry
     estimated scf accuracy    <     374.32542539 Ry

     total magnetization       =    -1.34 Bohr mag/cell
     absolute magnetization    =    27.91 Bohr mag/cell

     iteration # 57     ecut=    60.00 Ry     beta= 0.70
     Davidson diagonalization with overlap
     ethr =  1.00E-02,  avg # of iterations =  2.0

     negative rho (up, down):  3.680E+00 2.107E+00

     total cpu time spent up to now is      136.9 secs

     total energy              =    -336.95016921 Ry
     estimated scf accuracy    <     193.71283770 Ry

     total magnetization       =     0.23 Bohr mag/cell
     absolute magnetization    =    17.29 Bohr mag/cell

     iteration # 58     ecut=    60.00 Ry     beta= 0.70
     Davidson diagonalization with overlap
     ethr =  1.00E-02,  avg # of iterations =  2.0

     negative rho (up, down):  3.446E+00 1.987E+00

     total cpu time spent up to now is      138.4 secs

     total energy              =    -335.69778703 Ry
     estimated scf accuracy    <     169.25900064 Ry

     total magnetization       =    -0.15 Bohr mag/cell
     absolute magnetization    =    17.53 Bohr mag/cell

     iteration # 59     ecut=    60.00 Ry     beta= 0.70
     Davidson diagonalization with overlap
     ethr =  1.00E-02,  avg # of iterations =  2.0

     negative rho (up, down):  3.325E+00 2.119E+00

     total cpu time spent up to now is      139.9 secs

     total energy              =    -336.71214630 Ry
     estimated scf accuracy    <     173.94437865 Ry

     total magnetization       =    -0.34 Bohr mag/cell
     absolute magnetization    =    19.18 Bohr mag/cell

     iteration # 60     ecut=    60.00 Ry     beta= 0.70
     Davidson diagonalization with overlap
     ethr =  1.00E-02,  avg # of iterations =  1.5

     negative rho (up, down):  3.345E+00 2.371E+00

     total cpu time spent up to now is      141.5 secs

     total energy              =    -333.89284250 Ry
     estimated scf accuracy    <     174.92882849 Ry

     total magnetization       =    -0.34 Bohr mag/cell
     absolute magnetization    =    18.49 Bohr mag/cell

     iteration # 61     ecut=    60.00 Ry     beta= 0.70
     Davidson diagonalization with overlap
     ethr =  1.00E-02,  avg # of iterations =  2.0

     negative rho (up, down):  3.874E+00 2.151E+00

     total cpu time spent up to now is      143.2 secs

     total energy              =    -334.62378151 Ry
     estimated scf accuracy    <     277.43166844 Ry

     total magnetization       =     0.36 Bohr mag/cell
     absolute magnetization    =    24.39 Bohr mag/cell

     iteration # 62     ecut=    60.00 Ry     beta= 0.70
     Davidson diagonalization with overlap
     ethr =  1.00E-02,  avg # of iterations =  2.0

     negative rho (up, down):  2.581E+00 3.308E+00

     total cpu time spent up to now is      144.8 secs

     total energy              =    -334.94508494 Ry
     estimated scf accuracy    <     176.02023878 Ry

     total magnetization       =    -0.24 Bohr mag/cell
     absolute magnetization    =    18.55 Bohr mag/cell

     iteration # 63     ecut=    60.00 Ry     beta= 0.70
     Davidson diagonalization with overlap
     ethr =  1.00E-02,  avg # of iterations =  2.0

     negative rho (up, down):  2.403E+00 3.997E+00

     total cpu time spent up to now is      146.4 secs

     total energy              =    -341.74906570 Ry
     estimated scf accuracy    <     261.59102021 Ry

     total magnetization       =    -1.00 Bohr mag/cell
     absolute magnetization    =    22.38 Bohr mag/cell

     iteration # 64     ecut=    60.00 Ry     beta= 0.70
     Davidson diagonalization with overlap
     ethr =  1.00E-02,  avg # of iterations =  3.0

     negative rho (up, down):  4.174E+00 5.716E+00

     total cpu time spent up to now is      148.5 secs

     total energy              =    -330.08325292 Ry
     estimated scf accuracy    <     596.88765393 Ry

     total magnetization       =    -0.56 Bohr mag/cell
     absolute magnetization    =    34.36 Bohr mag/cell

     iteration # 65     ecut=    60.00 Ry     beta= 0.70
     Davidson diagonalization with overlap
     ethr =  1.00E-02,  avg # of iterations =  2.3

     negative rho (up, down):  1.432E+00 5.732E+00

     total cpu time spent up to now is      150.3 secs

     total energy              =    -335.55470248 Ry
     estimated scf accuracy    <     262.43969485 Ry

     total magnetization       =    -1.43 Bohr mag/cell
     absolute magnetization    =    21.36 Bohr mag/cell

     iteration # 66     ecut=    60.00 Ry     beta= 0.70
     Davidson diagonalization with overlap
     ethr =  1.00E-02,  avg # of iterations =  2.0

     negative rho (up, down):  2.121E+00 5.332E+00

     total cpu time spent up to now is      151.9 secs

     total energy              =    -332.90658833 Ry
     estimated scf accuracy    <     288.08525056 Ry

     total magnetization       =    -1.62 Bohr mag/cell
     absolute magnetization    =    22.42 Bohr mag/cell

     iteration # 67     ecut=    60.00 Ry     beta= 0.70
     Davidson diagonalization with overlap
     ethr =  1.00E-02,  avg # of iterations =  2.2

     negative rho (up, down):  2.149E+00 4.799E+00

     total cpu time spent up to now is      153.7 secs

     total energy              =    -336.03982311 Ry
     estimated scf accuracy    <     271.14857492 Ry

     total magnetization       =     0.35 Bohr mag/cell
     absolute magnetization    =    24.16 Bohr mag/cell

     iteration # 68     ecut=    60.00 Ry     beta= 0.70
     Davidson diagonalization with overlap
     ethr =  1.00E-02,  avg # of iterations =  1.9

     negative rho (up, down):  3.080E+00 3.919E+00

     total cpu time spent up to now is      155.2 secs

     total energy              =    -334.33148786 Ry
     estimated scf accuracy    <     227.44122646 Ry

     total magnetization       =     0.55 Bohr mag/cell
     absolute magnetization    =    22.29 Bohr mag/cell

     iteration # 69     ecut=    60.00 Ry     beta= 0.70
     Davidson diagonalization with overlap
     ethr =  1.00E-02,  avg # of iterations =  2.0

     negative rho (up, down):  1.852E+00 3.755E+00

     total cpu time spent up to now is      156.8 secs

     total energy              =    -335.65672424 Ry
     estimated scf accuracy    <     151.10888999 Ry

     total magnetization       =     0.66 Bohr mag/cell
     absolute magnetization    =    17.14 Bohr mag/cell

     iteration # 70     ecut=    60.00 Ry     beta= 0.70
     Davidson diagonalization with overlap
     ethr =  1.00E-02,  avg # of iterations =  2.0

     negative rho (up, down):  1.899E+00 3.257E+00

     total cpu time spent up to now is      158.3 secs

     total energy              =    -336.10004456 Ry
     estimated scf accuracy    <     141.05762901 Ry

     total magnetization       =     0.65 Bohr mag/cell
     absolute magnetization    =    17.32 Bohr mag/cell

     iteration # 71     ecut=    60.00 Ry     beta= 0.70
     Davidson diagonalization with overlap
     ethr =  1.00E-02,  avg # of iterations =  1.2

     negative rho (up, down):  1.948E+00 2.919E+00

     total cpu time spent up to now is      159.6 secs

     total energy              =    -332.80267962 Ry
     estimated scf accuracy    <     123.76404484 Ry

     total magnetization       =     0.61 Bohr mag/cell
     absolute magnetization    =    16.12 Bohr mag/cell

     iteration # 72     ecut=    60.00 Ry     beta= 0.70
     Davidson diagonalization with overlap
     ethr =  1.00E-02,  avg # of iterations =  2.0

     negative rho (up, down):  3.536E-01 9.347E-01

     total cpu time spent up to now is      161.2 secs

     total energy              =    -338.19598927 Ry
     estimated scf accuracy    <      17.12147900 Ry

     total magnetization       =    -1.13 Bohr mag/cell
     absolute magnetization    =     5.01 Bohr mag/cell

     iteration # 73     ecut=    60.00 Ry     beta= 0.70
     Davidson diagonalization with overlap
     ethr =  1.00E-02,  avg # of iterations =  2.0

     negative rho (up, down):  8.449E-01 7.656E-01

     total cpu time spent up to now is      162.7 secs

     total energy              =    -339.22647334 Ry
     estimated scf accuracy    <      54.94375125 Ry

     total magnetization       =    -0.87 Bohr mag/cell
     absolute magnetization    =     9.54 Bohr mag/cell

     iteration # 74     ecut=    60.00 Ry     beta= 0.70
     Davidson diagonalization with overlap
     ethr =  1.00E-02,  avg # of iterations =  2.0

     negative rho (up, down):  1.916E+00 6.995E-01

     total cpu time spent up to now is      164.2 secs

     total energy              =    -337.59365187 Ry
     estimated scf accuracy    <      97.11632988 Ry

     total magnetization       =    -1.00 Bohr mag/cell
     absolute magnetization    =    13.36 Bohr mag/cell

     iteration # 75     ecut=    60.00 Ry     beta= 0.70
     Davidson diagonalization with overlap
     ethr =  1.00E-02,  avg # of iterations =  2.0

     negative rho (up, down):  1.988E+00 6.843E-01

     total cpu time spent up to now is      165.8 secs

     total energy              =    -335.47218456 Ry
     estimated scf accuracy    <      77.49487484 Ry

     total magnetization       =    -0.76 Bohr mag/cell
     absolute magnetization    =    12.36 Bohr mag/cell

     iteration # 76     ecut=    60.00 Ry     beta= 0.70
     Davidson diagonalization with overlap
     ethr =  1.00E-02,  avg # of iterations =  2.0

     negative rho (up, down):  1.239E+00 6.240E-01

     total cpu time spent up to now is      167.4 secs

     total energy              =    -338.37476748 Ry
     estimated scf accuracy    <      64.90272277 Ry

     total magnetization       =     0.01 Bohr mag/cell
     absolute magnetization    =    11.73 Bohr mag/cell

     iteration # 77     ecut=    60.00 Ry     beta= 0.70
     Davidson diagonalization with overlap
     ethr =  1.00E-02,  avg # of iterations =  1.5

     negative rho (up, down):  1.682E+00 1.333E+00

     total cpu time spent up to now is      169.0 secs

     total energy              =    -337.72544779 Ry
     estimated scf accuracy    <      91.48220560 Ry

     total magnetization       =    -0.57 Bohr mag/cell
     absolute magnetization    =    14.00 Bohr mag/cell

     iteration # 78     ecut=    60.00 Ry     beta= 0.70
     Davidson diagonalization with overlap
     ethr =  1.00E-02,  avg # of iterations =  2.0

     negative rho (up, down):  1.270E+00 2.550E+00

     total cpu time spent up to now is      170.5 secs

     total energy              =    -338.01036597 Ry
     estimated scf accuracy    <     135.78722354 Ry

     total magnetization       =    -0.07 Bohr mag/cell
     absolute magnetization    =    16.59 Bohr mag/cell

     iteration # 79     ecut=    60.00 Ry     beta= 0.70
     Davidson diagonalization with overlap
     ethr =  1.00E-02,  avg # of iterations =  2.0

     negative rho (up, down):  1.148E+00 3.114E+00

     total cpu time spent up to now is      172.0 secs

     total energy              =    -337.29550090 Ry
     estimated scf accuracy    <     167.99346520 Ry

     total magnetization       =    -0.61 Bohr mag/cell
     absolute magnetization    =    17.84 Bohr mag/cell

     iteration # 80     ecut=    60.00 Ry     beta= 0.70
     Davidson diagonalization with overlap
     ethr =  1.00E-02,  avg # of iterations =  2.0

     negative rho (up, down):  2.032E+00 3.399E+00

     total cpu time spent up to now is      173.6 secs

     total energy              =    -337.77640478 Ry
     estimated scf accuracy    <     198.22134001 Ry

     total magnetization       =     0.31 Bohr mag/cell
     absolute magnetization    =    20.16 Bohr mag/cell

     iteration # 81     ecut=    60.00 Ry     beta= 0.70
     Davidson diagonalization with overlap
     ethr =  1.00E-02,  avg # of iterations =  2.0

     negative rho (up, down):  2.730E+00 3.823E+00

     total cpu time spent up to now is      175.2 secs

     total energy              =    -336.60616908 Ry
     estimated scf accuracy    <     242.90143384 Ry

     total magnetization       =    -1.03 Bohr mag/cell
     absolute magnetization    =    22.48 Bohr mag/cell

     iteration # 82     ecut=    60.00 Ry     beta= 0.70
     Davidson diagonalization with overlap
     ethr =  1.00E-02,  avg # of iterations =  2.0

     negative rho (up, down):  3.321E+00 3.783E+00

     total cpu time spent up to now is      176.7 secs

     total energy              =    -337.41149030 Ry
     estimated scf accuracy    <     256.44356510 Ry

     total magnetization       =    -1.64 Bohr mag/cell
     absolute magnetization    =    23.66 Bohr mag/cell

     iteration # 83     ecut=    60.00 Ry     beta= 0.70
     Davidson diagonalization with overlap
     ethr =  1.00E-02,  avg # of iterations =  2.0

     negative rho (up, down):  3.353E+00 4.231E+00

     total cpu time spent up to now is      178.5 secs

     total energy              =    -341.14334178 Ry
     estimated scf accuracy    <     292.52836281 Ry

     total magnetization       =    -1.38 Bohr mag/cell
     absolute magnetization    =    23.99 Bohr mag/cell

     iteration # 84     ecut=    60.00 Ry     beta= 0.70
     Davidson diagonalization with overlap
     ethr =  1.00E-02,  avg # of iterations =  2.0

     negative rho (up, down):  5.180E+00 5.221E+00

     total cpu time spent up to now is      180.1 secs

     total energy              =    -331.58903515 Ry
     estimated scf accuracy    <     466.81882926 Ry

     total magnetization       =    -1.32 Bohr mag/cell
     absolute magnetization    =    30.11 Bohr mag/cell

     iteration # 85     ecut=    60.00 Ry     beta= 0.70
     Davidson diagonalization with overlap
     ethr =  1.00E-02,  avg # of iterations =  2.0

     negative rho (up, down):  3.949E+00 4.706E+00

     total cpu time spent up to now is      181.6 secs

     total energy              =    -325.12893950 Ry
     estimated scf accuracy    <     232.48344764 Ry

     total magnetization       =    -1.03 Bohr mag/cell
     absolute magnetization    =    21.95 Bohr mag/cell

     iteration # 86     ecut=    60.00 Ry     beta= 0.70
     Davidson diagonalization with overlap
     ethr =  1.00E-02,  avg # of iterations =  2.4

     negative rho (up, down):  4.727E-01 1.095E+00

     total cpu time spent up to now is      183.4 secs

     total energy              =    -339.29285627 Ry
     estimated scf accuracy    <      22.21653045 Ry

     total magnetization       =     1.14 Bohr mag/cell
     absolute magnetization    =     6.97 Bohr mag/cell

     iteration # 87     ecut=    60.00 Ry     beta= 0.70
     Davidson diagonalization with overlap
     ethr =  1.00E-02,  avg # of iterations =  3.0

     negative rho (up, down):  3.039E+00 3.815E+00

     total cpu time spent up to now is      185.3 secs

     total energy              =    -331.92140396 Ry
     estimated scf accuracy    <     498.43157639 Ry

     total magnetization       =     1.16 Bohr mag/cell
     absolute magnetization    =    32.62 Bohr mag/cell

     iteration # 88     ecut=    60.00 Ry     beta= 0.70
     Davidson diagonalization with overlap
     ethr =  1.00E-02,  avg # of iterations =  2.0

     negative rho (up, down):  2.979E+00 2.939E+00

     total cpu time spent up to now is      186.9 secs

     total energy              =    -335.21401264 Ry
     estimated scf accuracy    <     155.17391613 Ry

     total magnetization       =     0.38 Bohr mag/cell
     absolute magnetization    =    17.75 Bohr mag/cell

     iteration # 89     ecut=    60.00 Ry     beta= 0.70
     Davidson diagonalization with overlap
     ethr =  1.00E-02,  avg # of iterations =  1.5

     negative rho (up, down):  2.614E+00 2.509E+00

     total cpu time spent up to now is      188.4 secs

     total energy              =    -330.81782828 Ry
     estimated scf accuracy    <     119.24723896 Ry

     total magnetization       =     0.50 Bohr mag/cell
     absolute magnetization    =    15.43 Bohr mag/cell

     iteration # 90     ecut=    60.00 Ry     beta= 0.70
     Davidson diagonalization with overlap
     ethr =  1.00E-02,  avg # of iterations =  2.1

     negative rho (up, down):  7.183E-02 1.559E-01

     total cpu time spent up to now is      190.1 secs

     total energy              =    -338.68883841 Ry
     estimated scf accuracy    <      23.32364273 Ry

     total magnetization       =     0.18 Bohr mag/cell
     absolute magnetization    =     6.75 Bohr mag/cell

     iteration # 91     ecut=    60.00 Ry     beta= 0.70
     Davidson diagonalization with overlap
     ethr =  1.00E-02,  avg # of iterations =  1.5

     negative rho (up, down):  2.471E-01 2.030E-02

     total cpu time spent up to now is      191.6 secs

     total energy              =    -339.31148670 Ry
     estimated scf accuracy    <       9.34389608 Ry

     total magnetization       =     0.33 Bohr mag/cell
     absolute magnetization    =     4.35 Bohr mag/cell

     iteration # 92     ecut=    60.00 Ry     beta= 0.70
     Davidson diagonalization with overlap
     ethr =  1.00E-02,  avg # of iterations =  2.0

     negative rho (up, down):  1.415E+00 9.606E-01

     total cpu time spent up to now is      193.1 secs

     total energy              =    -339.09224461 Ry
     estimated scf accuracy    <      90.90618766 Ry

     total magnetization       =    -0.02 Bohr mag/cell
     absolute magnetization    =    14.03 Bohr mag/cell

     iteration # 93     ecut=    60.00 Ry     beta= 0.70
     Davidson diagonalization with overlap
     ethr =  1.00E-02,  avg # of iterations =  2.0

     negative rho (up, down):  2.228E+00 2.182E+00

     total cpu time spent up to now is      194.6 secs

     total energy              =    -335.92974656 Ry
     estimated scf accuracy    <     152.87727888 Ry

     total magnetization       =     0.23 Bohr mag/cell
     absolute magnetization    =    18.16 Bohr mag/cell

     iteration # 94     ecut=    60.00 Ry     beta= 0.70
     Davidson diagonalization with overlap
     ethr =  1.00E-02,  avg # of iterations =  1.5

     negative rho (up, down):  2.164E+00 1.619E+00

     total cpu time spent up to now is      196.1 secs

     total energy              =    -337.15008674 Ry
     estimated scf accuracy    <      88.98209331 Ry

     total magnetization       =     0.37 Bohr mag/cell
     absolute magnetization    =    13.58 Bohr mag/cell

     iteration # 95     ecut=    60.00 Ry     beta= 0.70
     Davidson diagonalization with overlap
     ethr =  1.00E-02,  avg # of iterations =  2.0

     negative rho (up, down):  1.929E+00 2.443E+00

     total cpu time spent up to now is      197.6 secs

     total energy              =    -337.71115342 Ry
     estimated scf accuracy    <     128.70463397 Ry

     total magnetization       =     0.29 Bohr mag/cell
     absolute magnetization    =    16.36 Bohr mag/cell

     iteration # 96     ecut=    60.00 Ry     beta= 0.70
     Davidson diagonalization with overlap
     ethr =  1.00E-02,  avg # of iterations =  2.0

     negative rho (up, down):  2.784E+00 2.770E+00

     total cpu time spent up to now is      199.0 secs

     total energy              =    -336.24501465 Ry
     estimated scf accuracy    <     187.46891558 Ry

     total magnetization       =     0.15 Bohr mag/cell
     absolute magnetization    =    19.29 Bohr mag/cell

     iteration # 97     ecut=    60.00 Ry     beta= 0.70
     Davidson diagonalization with overlap
     ethr =  1.00E-02,  avg # of iterations =  1.5

     negative rho (up, down):  3.200E+00 2.221E+00

     total cpu time spent up to now is      200.5 secs

     total energy              =    -334.96274940 Ry
     estimated scf accuracy    <     154.74049507 Ry

     total magnetization       =     0.38 Bohr mag/cell
     absolute magnetization    =    17.64 Bohr mag/cell

     iteration # 98     ecut=    60.00 Ry     beta= 0.70
     Davidson diagonalization with overlap
     ethr =  1.00E-02,  avg # of iterations =  2.0

     negative rho (up, down):  2.068E+00 2.273E+00

     total cpu time spent up to now is      202.0 secs

     total energy              =    -334.14190964 Ry
     estimated scf accuracy    <      97.42175097 Ry

     total magnetization       =     0.51 Bohr mag/cell
     absolute magnetization    =    14.28 Bohr mag/cell

     iteration # 99     ecut=    60.00 Ry     beta= 0.70
     Davidson diagonalization with overlap
     ethr =  1.00E-02,  avg # of iterations =  2.0

     negative rho (up, down):  4.540E-01 7.896E-01

     total cpu time spent up to now is      203.6 secs

     total energy              =    -338.20837709 Ry
     estimated scf accuracy    <      13.32567800 Ry

     total magnetization       =     0.02 Bohr mag/cell
     absolute magnetization    =     4.90 Bohr mag/cell

     iteration #100     ecut=    60.00 Ry     beta= 0.70
     Davidson diagonalization with overlap
     ethr =  1.00E-02,  avg # of iterations =  2.0

     negative rho (up, down):  1.115E+00 1.438E+00

     total cpu time spent up to now is      205.2 secs

     total energy              =    -339.10686483 Ry
     estimated scf accuracy    <      77.55062138 Ry

     total magnetization       =     0.32 Bohr mag/cell
     absolute magnetization    =    12.75 Bohr mag/cell

     End of self-consistent calculation

     convergence NOT achieved after 100 iterations: stopping

     Writing config to output data dir ./out/pwscf.save/

     init_run     :      0.48s CPU      0.59s WALL (       1 calls)
     electrons    :    165.78s CPU    204.01s WALL (       2 calls)
     update_pot   :      0.05s CPU      0.06s WALL (       1 calls)
     forces       :      0.09s CPU      0.13s WALL (       1 calls)
     stress       :      0.21s CPU      0.23s WALL (       1 calls)

     Called by init_run:
     wfcinit      :      0.38s CPU      0.46s WALL (       1 calls)
     potinit      :      0.02s CPU      0.02s WALL (       1 calls)
     hinit0       :      0.08s CPU      0.10s WALL (       1 calls)

     Called by electrons:
     c_bands      :    145.15s CPU    178.73s WALL (     122 calls)
     sum_band     :     19.83s CPU     24.34s WALL (     122 calls)
     v_of_rho     :      0.44s CPU      0.48s WALL (     124 calls)
     newd         :      0.23s CPU      0.25s WALL (     124 calls)
     mix_rho      :      0.07s CPU      0.13s WALL (     122 calls)

     Called by c_bands:
     init_us_2    :      1.30s CPU      1.64s WALL (  104728 calls)
     init_us_2:cp :      1.18s CPU      1.50s WALL (  104728 calls)
     cegterg      :    139.32s CPU    169.60s WALL (   51728 calls)

     Called by *egterg:
     cdiaghg      :     22.32s CPU     26.44s WALL (  162391 calls)
     h_psi        :     92.12s CPU    113.12s WALL (  163239 calls)
     s_psi        :      3.28s CPU      3.99s WALL (  163239 calls)
     g_psi        :      0.22s CPU      0.27s WALL (  111087 calls)

     Called by h_psi:
     h_psi:calbec :      5.10s CPU      6.20s WALL (  163239 calls)
     vloc_psi     :     83.62s CPU    102.80s WALL (  163239 calls)
     add_vuspsi   :      2.78s CPU      3.39s WALL (  163239 calls)

     General routines
     calbec       :      6.72s CPU      8.26s WALL (  217087 calls)
     fft          :      0.22s CPU      0.25s WALL (    3137 calls)
     ffts         :      0.02s CPU      0.02s WALL (     492 calls)
     fftw         :     93.91s CPU    115.47s WALL ( 4091758 calls)
     interpolate  :      0.02s CPU      0.03s WALL (     248 calls)
     davcio       :      0.00s CPU      0.02s WALL (     442 calls)

     Parallel routines

     PWSCF        :   2m46.83s CPU   3m25.29s WALL


   This run was terminated on:  16:25:28  18Jun2023            

=------------------------------------------------------------------------------=
   JOB DONE.
=------------------------------------------------------------------------------=
Note: The following floating-point exceptions are signalling: IEEE_DENORMAL
STOP 255
Note: The following floating-point exceptions are signalling: IEEE_DENORMAL
STOP 255
Note: The following floating-point exceptions are signalling: IEEE_DENORMAL
STOP 255
Note: The following floating-point exceptions are signalling: IEEE_DENORMAL
STOP 255
Note: The following floating-point exceptions are signalling: IEEE_DENORMAL
STOP 255
Note: The following floating-point exceptions are signalling: IEEE_DENORMAL
STOP 255
Note: The following floating-point exceptions are signalling: IEEE_DENORMAL
STOP 255
Note: The following floating-point exceptions are signalling: IEEE_DENORMAL
STOP 255
Note: The following floating-point exceptions are signalling: IEEE_DENORMAL
STOP 255
STOP 255
Note: The following floating-point exceptions are signalling: IEEE_DENORMAL
STOP 255
STOP 255
STOP 255
STOP 255
STOP 255
Note: The following floating-point exceptions are signalling: IEEE_DENORMAL
STOP 255
STOP 255
STOP 255
Note: The following floating-point exceptions are signalling: IEEE_DENORMAL
STOP 255
Note: The following floating-point exceptions are signalling: IEEE_DENORMAL
STOP 255
STOP 255
Note: The following floating-point exceptions are signalling: IEEE_DENORMAL
STOP 255
STOP 255
Note: The following floating-point exceptions are signalling: IEEE_DENORMAL
STOP 255
--------------------------------------------------------------------------
Primary job  terminated normally, but 1 process returned
a non-zero exit code. Per user-direction, the job has been aborted.
--------------------------------------------------------------------------
--------------------------------------------------------------------------
mpirun detected that one or more processes exited with non-zero status, thus causing
the job to be terminated. The first process to do so was:

  Process name: [[16973,1],9]
  Exit code:    255
--------------------------------------------------------------------------
