Ignoring PCI device with non-16bit domain.
Pass --enable-32bits-pci-domain to configure to support such devices
(warning: it would break the library ABI, don't enable unless really needed).

     Program PWSCF v.7.1 starts on 23Jun2023 at 15:42:59 

     This program is part of the open-source Quantum ESPRESSO suite
     for quantum simulation of materials; please cite
         "P. Giannozzi et al., J. Phys.:Condens. Matter 21 395502 (2009);
         "P. Giannozzi et al., J. Phys.:Condens. Matter 29 465901 (2017);
         "P. Giannozzi et al., J. Chem. Phys. 152 154105 (2020);
          URL http://www.quantum-espresso.org", 
     in publications or presentations arising from this work. More details at
     http://www.quantum-espresso.org/quote

     Parallel version (MPI), running on    24 processors

     MPI processes distributed on     1 nodes
     12227 MiB available memory on the printing compute node when the environment starts

     Reading input from Ni_cubic_fcc_atoms.in

     Current dimensions of program PWSCF are:
     Max number of different atomic species (ntypx) = 10
     Max number of k-points (npk) =  40000
     Max angular momentum in pseudopotentials (lmaxx) =  4
     Found identity + (  0.0000  0.0000 -0.5000) symmetry
     This is a supercell, fractional translations are disabled

     K-points division:     npool     =       2
     R & G space division:  proc/nbgrp/npool/nimage =      12
     Subspace diagonalization in iterative solution of the eigenvalue problem:
     a serial algorithm will be used


     Parallelization info
     --------------------
     sticks:   dense  smooth     PW     G-vecs:    dense   smooth      PW
     Min          54      26      9                 1797      635     126
     Max          55      27     10                 1803      644     132
     Sum         649     313    109                21579     7637    1527

     Using Slab Decomposition



     bravais-lattice index     =            0
     lattice parameter (alat)  =       4.4077  a.u.
     unit-cell volume          =     121.0981 (a.u.)^3
     number of atoms/cell      =            2
     number of atomic types    =            1
     number of electrons       =        36.00
     number of Kohn-Sham states=           22
     kinetic-energy cutoff     =      60.0000  Ry
     charge density cutoff     =     480.0000  Ry
     scf convergence threshold =      1.0E-06
     mixing beta               =       0.7000
     number of iterations used =            8  TF        mixing
     energy convergence thresh.=      1.0E-05
     force convergence thresh. =      1.0E-04
     press convergence thresh. =      5.0E-01
     Exchange-correlation= PBE
                           (   1   4   3   4   0   0   0)
     nstep                     =           50


     celldm(1)=   4.407654  celldm(2)=   0.000000  celldm(3)=   0.000000
     celldm(4)=   0.000000  celldm(5)=   0.000000  celldm(6)=   0.000000

     crystal axes: (cart. coord. in units of alat)
               a(1) = (   1.000000   0.000000   0.000000 )  
               a(2) = (   0.500000   0.866025   0.000000 )  
               a(3) = (   1.000000   0.577350   1.632993 )  

     reciprocal axes: (cart. coord. in units 2 pi/alat)
               b(1) = (  1.000000 -0.577350 -0.408248 )  
               b(2) = (  0.000000  1.154701 -0.408248 )  
               b(3) = (  0.000000  0.000000  0.612372 )  


     PseudoPot. # 1 for Ni read from file:
     /home/jmgoff/work/automation/qe_pseudos/Ni.upf
     MD5 check sum: caf20d35bef94d268ef04de15446df97
     Pseudo is Ultrasoft + core correction, Zval = 18.0
     Generated using 'atomic' code by A. Dal Corso  v.7.1
     Using radial grid of 1195 points,  6 beta functions with: 
                l(1) =   0
                l(2) =   0
                l(3) =   1
                l(4) =   1
                l(5) =   2
                l(6) =   2
     Q(r) pseudized with 0 coefficients 


     atomic species   valence    mass     pseudopotential
        Ni            18.00    58.69340     Ni( 1.00)

     Starting magnetic structure 
     atomic species   magnetization
        Ni           1.000

     No symmetry found



   Cartesian axes

     site n.     atom                  positions (alat units)
         1           Ni  tau(   1) = (   0.0000000   0.0000000   0.0000000  )
         2           Ni  tau(   2) = (   0.5000000   0.2886751   0.8164966  )

     number of k points=   252  Marzari-Vanderbilt smearing, width (Ry)=  0.0100

     Number of k-points >= 100: set verbosity='high' to print them.

     Dense  grid:    21579 G-vectors     FFT dimensions: (  32,  32,  64)

     Smooth grid:     7637 G-vectors     FFT dimensions: (  24,  24,  45)

     Estimated max dynamical RAM per process >      15.00 MB

     Estimated total dynamical RAM >     349.56 MB

     Check: negative core charge=   -0.000001
     Generating pointlists ...
     new r_m :   0.4125 (alat units)  1.8182 (a.u.) for type    1

     Initial potential from superposition of free atoms

     starting charge      35.9995, renormalised to      36.0000
     Starting wfcs are   20 randomized atomic wfcs +    2 random wfcs

     total cpu time spent up to now is        1.0 secs

     Self-consistent Calculation

     iteration #  1     ecut=    60.00 Ry     beta= 0.70
     Davidson diagonalization with overlap
     ethr =  1.00E-02,  avg # of iterations =  5.5

     total cpu time spent up to now is        4.9 secs

     total energy              =    -673.90114407 Ry
     estimated scf accuracy    <      16.72367024 Ry

     total magnetization       =     7.99 Bohr mag/cell
     absolute magnetization    =     8.84 Bohr mag/cell

     iteration #  2     ecut=    60.00 Ry     beta= 0.70
     Davidson diagonalization with overlap
     ethr =  1.00E-02,  avg # of iterations =  3.0

     total cpu time spent up to now is        8.3 secs

     total energy              =    -677.94340872 Ry
     estimated scf accuracy    <       7.35280807 Ry

     total magnetization       =     2.24 Bohr mag/cell
     absolute magnetization    =     3.08 Bohr mag/cell

     iteration #  3     ecut=    60.00 Ry     beta= 0.70
     Davidson diagonalization with overlap
     ethr =  1.00E-02,  avg # of iterations =  2.0

     negative rho (up, down):  0.000E+00 3.152E-03

     total cpu time spent up to now is       10.9 secs

     total energy              =    -679.51647307 Ry
     estimated scf accuracy    <       1.73080923 Ry

     total magnetization       =     2.62 Bohr mag/cell
     absolute magnetization    =     3.94 Bohr mag/cell

     iteration #  4     ecut=    60.00 Ry     beta= 0.70
     Davidson diagonalization with overlap
     ethr =  4.81E-03,  avg # of iterations =  3.1

     total cpu time spent up to now is       14.2 secs

     total energy              =    -667.32001017 Ry
     estimated scf accuracy    <     677.01582981 Ry

     total magnetization       =     1.27 Bohr mag/cell
     absolute magnetization    =    50.73 Bohr mag/cell

     iteration #  5     ecut=    60.00 Ry     beta= 0.70
     Davidson diagonalization with overlap
     ethr =  4.81E-03,  avg # of iterations =  3.0

     total cpu time spent up to now is       17.2 secs

     total energy              =    -679.35657212 Ry
     estimated scf accuracy    <       9.85966219 Ry

     total magnetization       =     1.48 Bohr mag/cell
     absolute magnetization    =     5.69 Bohr mag/cell

     iteration #  6     ecut=    60.00 Ry     beta= 0.70
     Davidson diagonalization with overlap
     ethr =  4.81E-03,  avg # of iterations =  2.0

     total cpu time spent up to now is       19.7 secs

     total energy              =    -678.67309305 Ry
     estimated scf accuracy    <      25.45058313 Ry

     total magnetization       =     1.37 Bohr mag/cell
     absolute magnetization    =     9.85 Bohr mag/cell

     iteration #  7     ecut=    60.00 Ry     beta= 0.70
     Davidson diagonalization with overlap
     ethr =  4.81E-03,  avg # of iterations =  2.0

     total cpu time spent up to now is       22.2 secs

     total energy              =    -679.12478140 Ry
     estimated scf accuracy    <       1.52648317 Ry

     total magnetization       =     1.48 Bohr mag/cell
     absolute magnetization    =     2.34 Bohr mag/cell

     iteration #  8     ecut=    60.00 Ry     beta= 0.70
     Davidson diagonalization with overlap
     ethr =  4.24E-03,  avg # of iterations =  2.0

     total cpu time spent up to now is       24.8 secs

     total energy              =    -679.20358222 Ry
     estimated scf accuracy    <       8.63809280 Ry

     total magnetization       =     1.35 Bohr mag/cell
     absolute magnetization    =     5.97 Bohr mag/cell

     iteration #  9     ecut=    60.00 Ry     beta= 0.70
     Davidson diagonalization with overlap
     ethr =  4.24E-03,  avg # of iterations =  1.0

     total cpu time spent up to now is       26.8 secs

     total energy              =    -679.08570477 Ry
     estimated scf accuracy    <       5.16112252 Ry

     total magnetization       =     1.37 Bohr mag/cell
     absolute magnetization    =     4.57 Bohr mag/cell

     iteration # 10     ecut=    60.00 Ry     beta= 0.70
     Davidson diagonalization with overlap
     ethr =  4.24E-03,  avg # of iterations =  1.9

     total cpu time spent up to now is       29.1 secs

     total energy              =    -679.15684300 Ry
     estimated scf accuracy    <       1.28255917 Ry

     total magnetization       =     1.37 Bohr mag/cell
     absolute magnetization    =     2.85 Bohr mag/cell

     iteration # 11     ecut=    60.00 Ry     beta= 0.70
     Davidson diagonalization with overlap
     ethr =  3.56E-03,  avg # of iterations =  1.0

     total cpu time spent up to now is       31.1 secs

     total energy              =    -679.13739666 Ry
     estimated scf accuracy    <       1.45204548 Ry

     total magnetization       =     1.37 Bohr mag/cell
     absolute magnetization    =     3.15 Bohr mag/cell

     iteration # 12     ecut=    60.00 Ry     beta= 0.70
     Davidson diagonalization with overlap
     ethr =  3.56E-03,  avg # of iterations =  1.0

     total cpu time spent up to now is       33.1 secs

     total energy              =    -679.13428334 Ry
     estimated scf accuracy    <       0.41509207 Ry

     total magnetization       =     1.39 Bohr mag/cell
     absolute magnetization    =     2.15 Bohr mag/cell

     iteration # 13     ecut=    60.00 Ry     beta= 0.70
     Davidson diagonalization with overlap
     ethr =  1.15E-03,  avg # of iterations =  1.5

     total cpu time spent up to now is       35.4 secs

     total energy              =    -679.14188761 Ry
     estimated scf accuracy    <       0.15924633 Ry

     total magnetization       =     1.39 Bohr mag/cell
     absolute magnetization    =     1.72 Bohr mag/cell

     iteration # 14     ecut=    60.00 Ry     beta= 0.70
     Davidson diagonalization with overlap
     ethr =  4.42E-04,  avg # of iterations =  2.0

     total cpu time spent up to now is       37.9 secs

     total energy              =    -679.19455381 Ry
     estimated scf accuracy    <       0.80627141 Ry

     total magnetization       =     1.43 Bohr mag/cell
     absolute magnetization    =     2.63 Bohr mag/cell

     iteration # 15     ecut=    60.00 Ry     beta= 0.70
     Davidson diagonalization with overlap
     ethr =  4.42E-04,  avg # of iterations =  2.0

     total cpu time spent up to now is       40.5 secs

     total energy              =    -679.09734438 Ry
     estimated scf accuracy    <       5.73867495 Ry

     total magnetization       =     1.21 Bohr mag/cell
     absolute magnetization    =     4.30 Bohr mag/cell

     iteration # 16     ecut=    60.00 Ry     beta= 0.70
     Davidson diagonalization with overlap
     ethr =  4.42E-04,  avg # of iterations =  2.0

     total cpu time spent up to now is       43.1 secs

     total energy              =    -679.06803479 Ry
     estimated scf accuracy    <       4.29008993 Ry

     total magnetization       =     1.34 Bohr mag/cell
     absolute magnetization    =     4.61 Bohr mag/cell

     iteration # 17     ecut=    60.00 Ry     beta= 0.70
     Davidson diagonalization with overlap
     ethr =  4.42E-04,  avg # of iterations =  2.0

     total cpu time spent up to now is       45.7 secs

     total energy              =    -679.13000549 Ry
     estimated scf accuracy    <       1.30637053 Ry

     total magnetization       =     1.35 Bohr mag/cell
     absolute magnetization    =     2.32 Bohr mag/cell

     iteration # 18     ecut=    60.00 Ry     beta= 0.70
     Davidson diagonalization with overlap
     ethr =  4.42E-04,  avg # of iterations =  2.0

     total cpu time spent up to now is       48.3 secs

     total energy              =    -679.12992196 Ry
     estimated scf accuracy    <       1.19568966 Ry

     total magnetization       =     1.35 Bohr mag/cell
     absolute magnetization    =     2.84 Bohr mag/cell

     iteration # 19     ecut=    60.00 Ry     beta= 0.70
     Davidson diagonalization with overlap
     ethr =  4.42E-04,  avg # of iterations =  2.0

     total cpu time spent up to now is       50.9 secs

     total energy              =    -679.07983981 Ry
     estimated scf accuracy    <       5.92225373 Ry

     total magnetization       =     1.34 Bohr mag/cell
     absolute magnetization    =     5.18 Bohr mag/cell

     iteration # 20     ecut=    60.00 Ry     beta= 0.70
     Davidson diagonalization with overlap
     ethr =  4.42E-04,  avg # of iterations =  2.0

     total cpu time spent up to now is       53.5 secs

     total energy              =    -679.21565162 Ry
     estimated scf accuracy    <       0.89481762 Ry

     total magnetization       =     1.34 Bohr mag/cell
     absolute magnetization    =     2.24 Bohr mag/cell

     iteration # 21     ecut=    60.00 Ry     beta= 0.70
     Davidson diagonalization with overlap
     ethr =  4.42E-04,  avg # of iterations =  2.0

     total cpu time spent up to now is       56.2 secs

     total energy              =    -678.92016866 Ry
     estimated scf accuracy    <      20.36107968 Ry

     total magnetization       =     1.19 Bohr mag/cell
     absolute magnetization    =     9.16 Bohr mag/cell

     iteration # 22     ecut=    60.00 Ry     beta= 0.70
     Davidson diagonalization with overlap
     ethr =  4.42E-04,  avg # of iterations =  3.1

     total cpu time spent up to now is       59.4 secs

     total energy              =    -678.28954457 Ry
     estimated scf accuracy    <      71.39496033 Ry

     total magnetization       =     1.05 Bohr mag/cell
     absolute magnetization    =    16.34 Bohr mag/cell

     iteration # 23     ecut=    60.00 Ry     beta= 0.70
     Davidson diagonalization with overlap
     ethr =  4.42E-04,  avg # of iterations =  3.0

     total cpu time spent up to now is       62.5 secs

     total energy              =    -678.66630828 Ry
     estimated scf accuracy    <      41.79106352 Ry

     total magnetization       =     1.28 Bohr mag/cell
     absolute magnetization    =    12.20 Bohr mag/cell

     iteration # 24     ecut=    60.00 Ry     beta= 0.70
     Davidson diagonalization with overlap
     ethr =  4.42E-04,  avg # of iterations =  2.9

     total cpu time spent up to now is       65.4 secs

     total energy              =    -679.50554694 Ry
     estimated scf accuracy    <      15.53092352 Ry

     total magnetization       =     1.22 Bohr mag/cell
     absolute magnetization    =     7.68 Bohr mag/cell

     iteration # 25     ecut=    60.00 Ry     beta= 0.70
     Davidson diagonalization with overlap
     ethr =  4.42E-04,  avg # of iterations =  2.0

     total cpu time spent up to now is       68.1 secs

     total energy              =    -679.56180466 Ry
     estimated scf accuracy    <      32.96980923 Ry

     total magnetization       =     1.31 Bohr mag/cell
     absolute magnetization    =    11.23 Bohr mag/cell

     iteration # 26     ecut=    60.00 Ry     beta= 0.70
     Davidson diagonalization with overlap
     ethr =  4.42E-04,  avg # of iterations =  2.0

     total cpu time spent up to now is       70.7 secs

     total energy              =    -679.70218665 Ry
     estimated scf accuracy    <      40.50855458 Ry

     total magnetization       =     1.30 Bohr mag/cell
     absolute magnetization    =    12.37 Bohr mag/cell

     iteration # 27     ecut=    60.00 Ry     beta= 0.70
     Davidson diagonalization with overlap
     ethr =  4.42E-04,  avg # of iterations =  2.0

     total cpu time spent up to now is       73.3 secs

     total energy              =    -679.75711012 Ry
     estimated scf accuracy    <      45.39475110 Ry

     total magnetization       =     1.20 Bohr mag/cell
     absolute magnetization    =    13.12 Bohr mag/cell

     iteration # 28     ecut=    60.00 Ry     beta= 0.70
     Davidson diagonalization with overlap
     ethr =  4.42E-04,  avg # of iterations =  2.0

     total cpu time spent up to now is       76.0 secs

     total energy              =    -679.75580206 Ry
     estimated scf accuracy    <      52.61273234 Ry

     total magnetization       =     1.28 Bohr mag/cell
     absolute magnetization    =    14.22 Bohr mag/cell

     iteration # 29     ecut=    60.00 Ry     beta= 0.70
     Davidson diagonalization with overlap
     ethr =  4.42E-04,  avg # of iterations =  2.0

     negative rho (up, down):  0.000E+00 8.831E-04

     total cpu time spent up to now is       78.6 secs

     total energy              =    -679.80636502 Ry
     estimated scf accuracy    <      49.76146840 Ry

     total magnetization       =     1.28 Bohr mag/cell
     absolute magnetization    =    13.93 Bohr mag/cell

     iteration # 30     ecut=    60.00 Ry     beta= 0.70
     Davidson diagonalization with overlap
     ethr =  4.42E-04,  avg # of iterations =  3.1

     negative rho (up, down):  3.523E-04 1.402E-03

     total cpu time spent up to now is       81.9 secs

     total energy              =    -680.97775288 Ry
     estimated scf accuracy    <     146.06182045 Ry

     total magnetization       =     0.97 Bohr mag/cell
     absolute magnetization    =    23.82 Bohr mag/cell

     iteration # 31     ecut=    60.00 Ry     beta= 0.70
     Davidson diagonalization with overlap
     ethr =  4.42E-04,  avg # of iterations =  2.0

     negative rho (up, down):  0.000E+00 5.381E-03

     total cpu time spent up to now is       84.6 secs

     total energy              =    -680.78436481 Ry
     estimated scf accuracy    <     141.39208460 Ry

     total magnetization       =     0.87 Bohr mag/cell
     absolute magnetization    =    22.81 Bohr mag/cell

     iteration # 32     ecut=    60.00 Ry     beta= 0.70
     Davidson diagonalization with overlap
     ethr =  4.42E-04,  avg # of iterations =  2.0

     negative rho (up, down):  6.682E-04 1.226E-02

     total cpu time spent up to now is       87.3 secs

     total energy              =    -680.33224172 Ry
     estimated scf accuracy    <     150.88227997 Ry

     total magnetization       =     0.92 Bohr mag/cell
     absolute magnetization    =    24.28 Bohr mag/cell

     iteration # 33     ecut=    60.00 Ry     beta= 0.70
     Davidson diagonalization with overlap
     ethr =  4.42E-04,  avg # of iterations =  4.2

     negative rho (up, down):  6.814E-02 1.799E-02

     total cpu time spent up to now is       91.0 secs

     total energy              =    -677.16337941 Ry
     estimated scf accuracy    <     484.17708195 Ry

     total magnetization       =     0.35 Bohr mag/cell
     absolute magnetization    =    42.76 Bohr mag/cell

     iteration # 34     ecut=    60.00 Ry     beta= 0.70
     Davidson diagonalization with overlap
     ethr =  4.42E-04,  avg # of iterations =  4.3

     negative rho (up, down):  8.294E-02 4.402E-02

     total cpu time spent up to now is       95.3 secs

     total energy              =    -679.52711431 Ry
     estimated scf accuracy    <     498.71032999 Ry

     total magnetization       =     0.18 Bohr mag/cell
     absolute magnetization    =    36.38 Bohr mag/cell

     iteration # 35     ecut=    60.00 Ry     beta= 0.70
     Davidson diagonalization with overlap
     ethr =  4.42E-04,  avg # of iterations =  4.8

     negative rho (up, down):  1.585E-03 2.957E-04

     total cpu time spent up to now is       99.7 secs

     total energy              =    -672.70022893 Ry
     estimated scf accuracy    <     646.34246098 Ry

     total magnetization       =     0.36 Bohr mag/cell
     absolute magnetization    =    34.71 Bohr mag/cell

     iteration # 36     ecut=    60.00 Ry     beta= 0.70
     Davidson diagonalization with overlap
     ethr =  4.42E-04,  avg # of iterations =  3.8

     negative rho (up, down):  9.009E-04 1.062E-04

     total cpu time spent up to now is      103.6 secs

     total energy              =    -679.66919417 Ry
     estimated scf accuracy    <     249.02866048 Ry

     total magnetization       =     0.49 Bohr mag/cell
     absolute magnetization    =    31.16 Bohr mag/cell

     iteration # 37     ecut=    60.00 Ry     beta= 0.70
     Davidson diagonalization with overlap
     ethr =  4.42E-04,  avg # of iterations =  3.8

     negative rho (up, down):  3.060E-03 0.000E+00

     total cpu time spent up to now is      107.4 secs

     total energy              =    -682.82285549 Ry
     estimated scf accuracy    <     180.73689631 Ry

     total magnetization       =     0.08 Bohr mag/cell
     absolute magnetization    =    23.07 Bohr mag/cell

     iteration # 38     ecut=    60.00 Ry     beta= 0.70
     Davidson diagonalization with overlap
     ethr =  4.42E-04,  avg # of iterations =  3.4

     negative rho (up, down):  3.370E-01 1.059E+00

     total cpu time spent up to now is      110.8 secs

     total energy              =    -683.95470511 Ry
     estimated scf accuracy    <     380.84774536 Ry

     total magnetization       =     0.13 Bohr mag/cell
     absolute magnetization    =    38.44 Bohr mag/cell

     iteration # 39     ecut=    60.00 Ry     beta= 0.70
     Davidson diagonalization with overlap
     ethr =  4.42E-04,  avg # of iterations =  7.9

     negative rho (up, down):  6.440E-01 1.149E+00

     total cpu time spent up to now is      117.5 secs

     total energy              =    -783.00869601 Ry
     estimated scf accuracy    <    2709.98556318 Ry

     total magnetization       =     0.40 Bohr mag/cell
     absolute magnetization    =    84.41 Bohr mag/cell

     iteration # 40     ecut=    60.00 Ry     beta= 0.70
     Davidson diagonalization with overlap
     ethr =  4.42E-04,  avg # of iterations =  7.3

     negative rho (up, down):  5.125E-01 1.250E+00

     total cpu time spent up to now is      123.5 secs

     total energy              =    -772.91779201 Ry
     estimated scf accuracy    <    2881.88468147 Ry

     total magnetization       =     0.17 Bohr mag/cell
     absolute magnetization    =    72.55 Bohr mag/cell

     iteration # 41     ecut=    60.00 Ry     beta= 0.70
     Davidson diagonalization with overlap
     ethr =  4.42E-04,  avg # of iterations =  5.2

     negative rho (up, down):  1.237E+00 1.289E+00

     total cpu time spent up to now is      128.2 secs

     total energy              =    -698.64780203 Ry
     estimated scf accuracy    <    2437.47891463 Ry

     total magnetization       =     0.21 Bohr mag/cell
     absolute magnetization    =    84.56 Bohr mag/cell

     iteration # 42     ecut=    60.00 Ry     beta= 0.70
     Davidson diagonalization with overlap
     ethr =  4.42E-04,  avg # of iterations =  8.5

     negative rho (up, down):  1.008E+00 1.419E+00

     total cpu time spent up to now is      135.1 secs

     total energy              =    -782.19823734 Ry
     estimated scf accuracy    <    2822.88326217 Ry

     total magnetization       =     0.19 Bohr mag/cell
     absolute magnetization    =    96.57 Bohr mag/cell

     iteration # 43     ecut=    60.00 Ry     beta= 0.70
     Davidson diagonalization with overlap
     ethr =  4.42E-04,  avg # of iterations =  7.6

     negative rho (up, down):  9.418E-01 1.789E+00

     total cpu time spent up to now is      141.5 secs

     total energy              =    -825.90897691 Ry
     estimated scf accuracy    <    2668.39283393 Ry

     total magnetization       =     0.00 Bohr mag/cell
     absolute magnetization    =    87.97 Bohr mag/cell

     iteration # 44     ecut=    60.00 Ry     beta= 0.70
     Davidson diagonalization with overlap
     ethr =  4.42E-04,  avg # of iterations =  7.1

     negative rho (up, down):  1.125E+00 1.282E+00

     total cpu time spent up to now is      147.3 secs

     total energy              =    -772.63380020 Ry
     estimated scf accuracy    <    3002.41560997 Ry

     total magnetization       =     0.07 Bohr mag/cell
     absolute magnetization    =    77.98 Bohr mag/cell

     iteration # 45     ecut=    60.00 Ry     beta= 0.70
     Davidson diagonalization with overlap
     ethr =  4.42E-04,  avg # of iterations =  7.0

     negative rho (up, down):  1.382E+00 1.601E+00

     total cpu time spent up to now is      153.2 secs

     total energy              =    -687.26844468 Ry
     estimated scf accuracy    <    2812.48227278 Ry

     total magnetization       =     0.12 Bohr mag/cell
     absolute magnetization    =    77.70 Bohr mag/cell

     iteration # 46     ecut=    60.00 Ry     beta= 0.70
     Davidson diagonalization with overlap
     ethr =  4.42E-04,  avg # of iterations =  7.2

     negative rho (up, down):  1.748E+00 2.907E+00

     total cpu time spent up to now is      160.1 secs

     total energy              =    -665.32906860 Ry
     estimated scf accuracy    <    2520.97795628 Ry

     total magnetization       =    -0.15 Bohr mag/cell
     absolute magnetization    =    95.26 Bohr mag/cell

     iteration # 47     ecut=    60.00 Ry     beta= 0.70
     Davidson diagonalization with overlap
     c_bands:  1 eigenvalues not converged
     ethr =  4.42E-04,  avg # of iterations =  9.7

     negative rho (up, down):  9.496E+00 6.100E+00

     total cpu time spent up to now is      167.7 secs

     total energy              =    -274.03200756 Ry
     estimated scf accuracy    <    2614.10208439 Ry

     total magnetization       =     0.29 Bohr mag/cell
     absolute magnetization    =    80.28 Bohr mag/cell

     iteration # 48     ecut=    60.00 Ry     beta= 0.70
     Davidson diagonalization with overlap
     c_bands:  1 eigenvalues not converged
     c_bands:  1 eigenvalues not converged
     c_bands:  1 eigenvalues not converged
     c_bands:  1 eigenvalues not converged
     c_bands:  1 eigenvalues not converged
     c_bands:  1 eigenvalues not converged
     c_bands:  1 eigenvalues not converged
     ethr =  4.42E-04,  avg # of iterations = 16.9

     negative rho (up, down):  4.311E+00 5.117E+00

     total cpu time spent up to now is      180.2 secs

     total energy              =    -470.92902977 Ry
     estimated scf accuracy    <    5663.95229229 Ry

     total magnetization       =     0.25 Bohr mag/cell
     absolute magnetization    =    24.91 Bohr mag/cell

     iteration # 49     ecut=    60.00 Ry     beta= 0.70
     Davidson diagonalization with overlap
     ethr =  4.42E-04,  avg # of iterations = 10.6

     negative rho (up, down):  3.587E+00 3.993E+00

     total cpu time spent up to now is      189.0 secs

     total energy              =    -779.11009159 Ry
     estimated scf accuracy    <    1881.93470936 Ry

     total magnetization       =    -0.03 Bohr mag/cell
     absolute magnetization    =   101.85 Bohr mag/cell

     iteration # 50     ecut=    60.00 Ry     beta= 0.70
     Davidson diagonalization with overlap
     ethr =  4.42E-04,  avg # of iterations =  8.6

     negative rho (up, down):  4.218E+00 3.191E+00

     total cpu time spent up to now is      195.9 secs

     total energy              =    -706.99249109 Ry
     estimated scf accuracy    <    2979.36397224 Ry

     total magnetization       =    -0.17 Bohr mag/cell
     absolute magnetization    =    85.47 Bohr mag/cell

     iteration # 51     ecut=    60.00 Ry     beta= 0.70
     Davidson diagonalization with overlap
     ethr =  4.42E-04,  avg # of iterations =  8.8

     negative rho (up, down):  2.656E+00 1.636E+00

     total cpu time spent up to now is      202.8 secs

     total energy              =    -720.25553813 Ry
     estimated scf accuracy    <    2333.75169668 Ry

     total magnetization       =     0.21 Bohr mag/cell
     absolute magnetization    =   116.68 Bohr mag/cell

     iteration # 52     ecut=    60.00 Ry     beta= 0.70
     Davidson diagonalization with overlap
     ethr =  4.42E-04,  avg # of iterations =  7.9

     negative rho (up, down):  2.765E+00 1.522E+00

     total cpu time spent up to now is      209.5 secs

     total energy              =    -795.36274993 Ry
     estimated scf accuracy    <    2280.22029079 Ry

     total magnetization       =    -0.07 Bohr mag/cell
     absolute magnetization    =    93.09 Bohr mag/cell

     iteration # 53     ecut=    60.00 Ry     beta= 0.70
     Davidson diagonalization with overlap
     ethr =  4.42E-04,  avg # of iterations =  4.6

     negative rho (up, down):  2.902E+00 2.895E+00

     total cpu time spent up to now is      213.8 secs

     total energy              =    -807.18472558 Ry
     estimated scf accuracy    <    2166.03804936 Ry

     total magnetization       =    -0.04 Bohr mag/cell
     absolute magnetization    =    84.34 Bohr mag/cell

     iteration # 54     ecut=    60.00 Ry     beta= 0.70
     Davidson diagonalization with overlap
     ethr =  4.42E-04,  avg # of iterations = 10.5

     negative rho (up, down):  5.997E+00 7.590E+00

     total cpu time spent up to now is      221.6 secs

     total energy              =    -576.79616587 Ry
     estimated scf accuracy    <    3093.85524884 Ry

     total magnetization       =     0.02 Bohr mag/cell
     absolute magnetization    =    56.88 Bohr mag/cell

     iteration # 55     ecut=    60.00 Ry     beta= 0.70
     Davidson diagonalization with overlap
     c_bands:  1 eigenvalues not converged
     c_bands:  1 eigenvalues not converged
     ethr =  4.42E-04,  avg # of iterations = 14.2

     negative rho (up, down):  5.349E+00 5.165E+00

     total cpu time spent up to now is      232.5 secs

     total energy              =    -532.08228177 Ry
     estimated scf accuracy    <    4015.93410806 Ry

     total magnetization       =     0.11 Bohr mag/cell
     absolute magnetization    =    60.00 Bohr mag/cell

     iteration # 56     ecut=    60.00 Ry     beta= 0.70
     Davidson diagonalization with overlap
     ethr =  4.42E-04,  avg # of iterations = 11.0

     negative rho (up, down):  7.341E+00 7.126E+00

     total cpu time spent up to now is      242.0 secs

     total energy              =    -801.34177219 Ry
     estimated scf accuracy    <    2299.90215761 Ry

     total magnetization       =    -0.54 Bohr mag/cell
     absolute magnetization    =    93.10 Bohr mag/cell

     iteration # 57     ecut=    60.00 Ry     beta= 0.70
     Davidson diagonalization with overlap
     ethr =  4.42E-04,  avg # of iterations =  8.3

     negative rho (up, down):  7.441E+00 6.897E+00

     total cpu time spent up to now is      248.6 secs

     total energy              =    -812.34994071 Ry
     estimated scf accuracy    <    2357.32375781 Ry

     total magnetization       =    -0.00 Bohr mag/cell
     absolute magnetization    =    98.31 Bohr mag/cell

     iteration # 58     ecut=    60.00 Ry     beta= 0.70
     Davidson diagonalization with overlap
     ethr =  4.42E-04,  avg # of iterations =  9.0

     negative rho (up, down):  5.255E+00 6.771E+00

     total cpu time spent up to now is      255.9 secs

     total energy              =    -585.81956040 Ry
     estimated scf accuracy    <    2626.55726060 Ry

     total magnetization       =    -0.11 Bohr mag/cell
     absolute magnetization    =    58.36 Bohr mag/cell

     iteration # 59     ecut=    60.00 Ry     beta= 0.70
     Davidson diagonalization with overlap
     ethr =  4.42E-04,  avg # of iterations =  9.9

     negative rho (up, down):  6.234E+00 7.766E+00

     total cpu time spent up to now is      263.9 secs

     total energy              =    -651.46275723 Ry
     estimated scf accuracy    <    2337.11326728 Ry

     total magnetization       =    -0.19 Bohr mag/cell
     absolute magnetization    =    97.22 Bohr mag/cell

     iteration # 60     ecut=    60.00 Ry     beta= 0.70
     Davidson diagonalization with overlap
     ethr =  4.42E-04,  avg # of iterations =  9.6

     negative rho (up, down):  7.794E+00 8.473E+00

     total cpu time spent up to now is      271.5 secs

     total energy              =    -704.88475988 Ry
     estimated scf accuracy    <    2464.52339473 Ry

     total magnetization       =    -0.11 Bohr mag/cell
     absolute magnetization    =   103.26 Bohr mag/cell

     iteration # 61     ecut=    60.00 Ry     beta= 0.70
     Davidson diagonalization with overlap
     ethr =  4.42E-04,  avg # of iterations =  8.0

     negative rho (up, down):  7.392E+00 5.097E+00

     total cpu time spent up to now is      278.2 secs

     total energy              =    -712.80699826 Ry
     estimated scf accuracy    <    1740.36532112 Ry

     total magnetization       =    -0.27 Bohr mag/cell
     absolute magnetization    =   126.10 Bohr mag/cell

     iteration # 62     ecut=    60.00 Ry     beta= 0.70
     Davidson diagonalization with overlap
     ethr =  4.42E-04,  avg # of iterations = 11.5

     negative rho (up, down):  6.945E+00 8.244E+00

     total cpu time spent up to now is      287.0 secs

     total energy              =    -595.62203489 Ry
     estimated scf accuracy    <    3737.45884840 Ry

     total magnetization       =     0.56 Bohr mag/cell
     absolute magnetization    =    63.16 Bohr mag/cell

     iteration # 63     ecut=    60.00 Ry     beta= 0.70
     Davidson diagonalization with overlap
     ethr =  4.42E-04,  avg # of iterations =  9.9

     negative rho (up, down):  9.510E+00 5.335E+00

     total cpu time spent up to now is      295.2 secs

     total energy              =    -701.73052948 Ry
     estimated scf accuracy    <    2013.54098717 Ry

     total magnetization       =     0.08 Bohr mag/cell
     absolute magnetization    =   101.27 Bohr mag/cell

     iteration # 64     ecut=    60.00 Ry     beta= 0.70
     Davidson diagonalization with overlap
     ethr =  4.42E-04,  avg # of iterations = 11.1

     negative rho (up, down):  7.436E+00 7.027E+00

     total cpu time spent up to now is      304.3 secs

     total energy              =    -599.07850012 Ry
     estimated scf accuracy    <    3874.19990754 Ry

     total magnetization       =    -0.03 Bohr mag/cell
     absolute magnetization    =    56.32 Bohr mag/cell

     iteration # 65     ecut=    60.00 Ry     beta= 0.70
     Davidson diagonalization with overlap
     ethr =  4.42E-04,  avg # of iterations =  8.8

     negative rho (up, down):  7.483E+00 8.370E+00

     total cpu time spent up to now is      311.9 secs

     total energy              =    -826.01701653 Ry
     estimated scf accuracy    <    1936.94664760 Ry

     total magnetization       =     0.04 Bohr mag/cell
     absolute magnetization    =   126.31 Bohr mag/cell

     iteration # 66     ecut=    60.00 Ry     beta= 0.70
     Davidson diagonalization with overlap
     ethr =  4.42E-04,  avg # of iterations = 10.1

     negative rho (up, down):  7.444E+00 6.718E+00

     total cpu time spent up to now is      320.1 secs

     total energy              =    -690.43968503 Ry
     estimated scf accuracy    <    3222.26641436 Ry

     total magnetization       =    -0.24 Bohr mag/cell
     absolute magnetization    =    84.38 Bohr mag/cell

     iteration # 67     ecut=    60.00 Ry     beta= 0.70
     Davidson diagonalization with overlap
     ethr =  4.42E-04,  avg # of iterations =  8.5

     negative rho (up, down):  1.071E+01 8.509E+00

     total cpu time spent up to now is      327.2 secs

     total energy              =    -821.97190865 Ry
     estimated scf accuracy    <    2046.33690645 Ry

     total magnetization       =     0.06 Bohr mag/cell
     absolute magnetization    =   122.75 Bohr mag/cell

     iteration # 68     ecut=    60.00 Ry     beta= 0.70
     Davidson diagonalization with overlap
     c_bands:  1 eigenvalues not converged
     ethr =  4.42E-04,  avg # of iterations = 14.0

     negative rho (up, down):  7.868E+00 7.538E+00

     total cpu time spent up to now is      337.6 secs

     total energy              =    -487.94262305 Ry
     estimated scf accuracy    <    5598.00587828 Ry

     total magnetization       =    -0.41 Bohr mag/cell
     absolute magnetization    =    22.30 Bohr mag/cell

     iteration # 69     ecut=    60.00 Ry     beta= 0.70
     Davidson diagonalization with overlap
     ethr =  4.42E-04,  avg # of iterations = 11.7

     negative rho (up, down):  7.753E+00 9.155E+00

     total cpu time spent up to now is      347.4 secs

     total energy              =    -648.47391982 Ry
     estimated scf accuracy    <    2569.21745486 Ry

     total magnetization       =    -0.10 Bohr mag/cell
     absolute magnetization    =   100.50 Bohr mag/cell

     iteration # 70     ecut=    60.00 Ry     beta= 0.70
     Davidson diagonalization with overlap
     ethr =  4.42E-04,  avg # of iterations = 11.4

     negative rho (up, down):  8.097E+00 7.658E+00

     total cpu time spent up to now is      356.4 secs

     total energy              =    -650.81448875 Ry
     estimated scf accuracy    <    3066.94619765 Ry

     total magnetization       =    -0.08 Bohr mag/cell
     absolute magnetization    =    84.70 Bohr mag/cell

     iteration # 71     ecut=    60.00 Ry     beta= 0.70
     Davidson diagonalization with overlap
     ethr =  4.42E-04,  avg # of iterations =  8.9

     negative rho (up, down):  8.875E+00 9.021E+00

     total cpu time spent up to now is      364.1 secs

     total energy              =    -797.25924609 Ry
     estimated scf accuracy    <    1841.02956982 Ry

     total magnetization       =     0.02 Bohr mag/cell
     absolute magnetization    =   126.49 Bohr mag/cell

     iteration # 72     ecut=    60.00 Ry     beta= 0.70
     Davidson diagonalization with overlap
     ethr =  4.42E-04,  avg # of iterations =  8.2

     negative rho (up, down):  7.408E+00 1.204E+01

     total cpu time spent up to now is      370.8 secs

     total energy              =    -565.17262606 Ry
     estimated scf accuracy    <    2256.42625626 Ry

     total magnetization       =     0.08 Bohr mag/cell
     absolute magnetization    =   100.50 Bohr mag/cell

     iteration # 73     ecut=    60.00 Ry     beta= 0.70
     Davidson diagonalization with overlap
     c_bands:  1 eigenvalues not converged
     ethr =  4.42E-04,  avg # of iterations = 13.7

     negative rho (up, down):  1.422E+01 6.361E+00

     total cpu time spent up to now is      381.5 secs

     total energy              =    -321.30594191 Ry
     estimated scf accuracy    <    4288.09949364 Ry

     total magnetization       =    -0.16 Bohr mag/cell
     absolute magnetization    =    51.19 Bohr mag/cell

     iteration # 74     ecut=    60.00 Ry     beta= 0.70
     Davidson diagonalization with overlap
     c_bands:  1 eigenvalues not converged
     c_bands:  1 eigenvalues not converged
     ethr =  4.42E-04,  avg # of iterations = 15.1

     negative rho (up, down):  9.134E+00 8.948E+00

     total cpu time spent up to now is      393.6 secs

     total energy              =    -491.93356901 Ry
     estimated scf accuracy    <    5008.42398595 Ry

     total magnetization       =     0.55 Bohr mag/cell
     absolute magnetization    =    25.67 Bohr mag/cell

     iteration # 75     ecut=    60.00 Ry     beta= 0.70
     Davidson diagonalization with overlap
     ethr =  4.42E-04,  avg # of iterations =  8.7

     negative rho (up, down):  8.087E+00 8.469E+00

     total cpu time spent up to now is      401.3 secs

     total energy              =    -760.25861640 Ry
     estimated scf accuracy    <    1619.38383017 Ry

     total magnetization       =     0.18 Bohr mag/cell
     absolute magnetization    =   130.53 Bohr mag/cell

     iteration # 76     ecut=    60.00 Ry     beta= 0.70
     Davidson diagonalization with overlap
     ethr =  4.42E-04,  avg # of iterations =  7.0

     negative rho (up, down):  8.659E+00 8.572E+00

     total cpu time spent up to now is      407.0 secs

     total energy              =    -744.01139130 Ry
     estimated scf accuracy    <    1838.92389371 Ry

     total magnetization       =    -0.33 Bohr mag/cell
     absolute magnetization    =   123.58 Bohr mag/cell

     iteration # 77     ecut=    60.00 Ry     beta= 0.70
     Davidson diagonalization with overlap
     ethr =  4.42E-04,  avg # of iterations =  6.7

     negative rho (up, down):  8.227E+00 8.917E+00

     total cpu time spent up to now is      412.6 secs

     total energy              =    -774.39029154 Ry
     estimated scf accuracy    <    1695.94875701 Ry

     total magnetization       =     0.00 Bohr mag/cell
     absolute magnetization    =   130.21 Bohr mag/cell

     iteration # 78     ecut=    60.00 Ry     beta= 0.70
     Davidson diagonalization with overlap
     ethr =  4.42E-04,  avg # of iterations =  8.3

     negative rho (up, down):  1.050E+01 1.029E+01

     total cpu time spent up to now is      419.3 secs

     total energy              =    -603.10737417 Ry
     estimated scf accuracy    <    2183.88587783 Ry

     total magnetization       =     0.03 Bohr mag/cell
     absolute magnetization    =    79.14 Bohr mag/cell

     iteration # 79     ecut=    60.00 Ry     beta= 0.70
     Davidson diagonalization with overlap
     ethr =  4.42E-04,  avg # of iterations = 12.1

     negative rho (up, down):  1.130E+01 1.171E+01

     total cpu time spent up to now is      428.5 secs

     total energy              =    -605.44989134 Ry
     estimated scf accuracy    <    2799.34131862 Ry

     total magnetization       =     0.06 Bohr mag/cell
     absolute magnetization    =    90.16 Bohr mag/cell

     iteration # 80     ecut=    60.00 Ry     beta= 0.70
     Davidson diagonalization with overlap
     ethr =  4.42E-04,  avg # of iterations = 12.1

     negative rho (up, down):  9.743E+00 9.796E+00

     total cpu time spent up to now is      438.2 secs

     total energy              =    -622.31059118 Ry
     estimated scf accuracy    <    2986.26202911 Ry

     total magnetization       =     0.17 Bohr mag/cell
     absolute magnetization    =    82.35 Bohr mag/cell

     iteration # 81     ecut=    60.00 Ry     beta= 0.70
     Davidson diagonalization with overlap
     ethr =  4.42E-04,  avg # of iterations =  9.3

     negative rho (up, down):  1.011E+01 9.942E+00

     total cpu time spent up to now is      446.1 secs

     total energy              =    -741.61195243 Ry
     estimated scf accuracy    <    1506.14965689 Ry

     total magnetization       =    -0.14 Bohr mag/cell
     absolute magnetization    =   129.86 Bohr mag/cell

     iteration # 82     ecut=    60.00 Ry     beta= 0.70
     Davidson diagonalization with overlap
     c_bands:  1 eigenvalues not converged
     ethr =  4.42E-04,  avg # of iterations = 11.2

     negative rho (up, down):  1.034E+01 1.136E+01

     total cpu time spent up to now is      455.4 secs

     total energy              =    -534.27866811 Ry
     estimated scf accuracy    <    3379.85155671 Ry

     total magnetization       =    -0.08 Bohr mag/cell
     absolute magnetization    =    72.51 Bohr mag/cell

     iteration # 83     ecut=    60.00 Ry     beta= 0.70
     Davidson diagonalization with overlap
     ethr =  4.42E-04,  avg # of iterations = 10.2

     negative rho (up, down):  1.599E+01 8.231E+00

     total cpu time spent up to now is      464.0 secs

     total energy              =    -714.26120329 Ry
     estimated scf accuracy    <    1751.28796723 Ry

     total magnetization       =    -0.09 Bohr mag/cell
     absolute magnetization    =   111.28 Bohr mag/cell

     iteration # 84     ecut=    60.00 Ry     beta= 0.70
     Davidson diagonalization with overlap
     ethr =  4.42E-04,  avg # of iterations = 12.2

     negative rho (up, down):  1.036E+01 1.037E+01

     total cpu time spent up to now is      473.5 secs

     total energy              =    -467.30126029 Ry
     estimated scf accuracy    <    5234.82519752 Ry

     total magnetization       =     0.17 Bohr mag/cell
     absolute magnetization    =    21.70 Bohr mag/cell

     iteration # 85     ecut=    60.00 Ry     beta= 0.70
     Davidson diagonalization with overlap
     ethr =  4.42E-04,  avg # of iterations =  8.6

     negative rho (up, down):  1.101E+01 1.163E+01

     total cpu time spent up to now is      481.1 secs

     total energy              =    -739.88743094 Ry
     estimated scf accuracy    <    1382.71167246 Ry

     total magnetization       =     0.07 Bohr mag/cell
     absolute magnetization    =   130.81 Bohr mag/cell

     iteration # 86     ecut=    60.00 Ry     beta= 0.70
     Davidson diagonalization with overlap
     ethr =  4.42E-04,  avg # of iterations =  6.9

     negative rho (up, down):  1.036E+01 1.032E+01

     total cpu time spent up to now is      486.6 secs

     total energy              =    -736.29092477 Ry
     estimated scf accuracy    <    1282.54755861 Ry

     total magnetization       =    -0.45 Bohr mag/cell
     absolute magnetization    =   122.96 Bohr mag/cell

     iteration # 87     ecut=    60.00 Ry     beta= 0.70
     Davidson diagonalization with overlap
     ethr =  4.42E-04,  avg # of iterations =  6.4

     negative rho (up, down):  1.083E+01 1.166E+01

     total cpu time spent up to now is      492.1 secs

     total energy              =    -762.92067695 Ry
     estimated scf accuracy    <    1386.85886804 Ry

     total magnetization       =    -0.25 Bohr mag/cell
     absolute magnetization    =   131.13 Bohr mag/cell

     iteration # 88     ecut=    60.00 Ry     beta= 0.70
     Davidson diagonalization with overlap
     ethr =  4.42E-04,  avg # of iterations =  9.1

     negative rho (up, down):  1.210E+01 1.242E+01

     total cpu time spent up to now is      499.5 secs

     total energy              =    -576.91629693 Ry
     estimated scf accuracy    <    2909.85588452 Ry

     total magnetization       =     0.13 Bohr mag/cell
     absolute magnetization    =    58.32 Bohr mag/cell

     iteration # 89     ecut=    60.00 Ry     beta= 0.70
     Davidson diagonalization with overlap
     ethr =  4.42E-04,  avg # of iterations =  9.3

     negative rho (up, down):  1.212E+01 1.328E+01

     total cpu time spent up to now is      507.7 secs

     total energy              =    -702.82405839 Ry
     estimated scf accuracy    <    1380.99907411 Ry

     total magnetization       =    -0.10 Bohr mag/cell
     absolute magnetization    =   120.96 Bohr mag/cell

     iteration # 90     ecut=    60.00 Ry     beta= 0.70
     Davidson diagonalization with overlap
     ethr =  4.42E-04,  avg # of iterations = 12.4

     negative rho (up, down):  1.185E+01 1.185E+01

     total cpu time spent up to now is      517.6 secs

     total energy              =    -564.58051860 Ry
     estimated scf accuracy    <    3666.79924490 Ry

     total magnetization       =     0.25 Bohr mag/cell
     absolute magnetization    =    67.66 Bohr mag/cell

     iteration # 91     ecut=    60.00 Ry     beta= 0.70
     Davidson diagonalization with overlap
     ethr =  4.42E-04,  avg # of iterations =  9.9

     negative rho (up, down):  9.893E+00 1.023E+01

     total cpu time spent up to now is      526.0 secs

     total energy              =    -749.49582137 Ry
     estimated scf accuracy    <    1158.75542071 Ry

     total magnetization       =    -0.01 Bohr mag/cell
     absolute magnetization    =   130.88 Bohr mag/cell

     iteration # 92     ecut=    60.00 Ry     beta= 0.70
     Davidson diagonalization with overlap
     ethr =  4.42E-04,  avg # of iterations = 10.2

     negative rho (up, down):  1.219E+01 1.296E+01

     total cpu time spent up to now is      534.4 secs

     total energy              =    -536.22682335 Ry
     estimated scf accuracy    <    3245.46131392 Ry

     total magnetization       =    -0.02 Bohr mag/cell
     absolute magnetization    =    69.55 Bohr mag/cell

     iteration # 93     ecut=    60.00 Ry     beta= 0.70
     Davidson diagonalization with overlap
     ethr =  4.42E-04,  avg # of iterations =  9.5

     negative rho (up, down):  1.899E+01 1.288E+01

     total cpu time spent up to now is      542.6 secs

     total energy              =    -715.35677564 Ry
     estimated scf accuracy    <    1326.71923642 Ry

     total magnetization       =    -0.11 Bohr mag/cell
     absolute magnetization    =   119.57 Bohr mag/cell

     iteration # 94     ecut=    60.00 Ry     beta= 0.70
     Davidson diagonalization with overlap
     ethr =  4.42E-04,  avg # of iterations = 10.9

     negative rho (up, down):  1.251E+01 1.253E+01

     total cpu time spent up to now is      551.2 secs

     total energy              =    -492.44388869 Ry
     estimated scf accuracy    <    4542.65843131 Ry

     total magnetization       =     0.10 Bohr mag/cell
     absolute magnetization    =    31.27 Bohr mag/cell

     iteration # 95     ecut=    60.00 Ry     beta= 0.70
     Davidson diagonalization with overlap
     ethr =  4.42E-04,  avg # of iterations =  8.6

     negative rho (up, down):  1.292E+01 1.373E+01

     total cpu time spent up to now is      558.7 secs

     total energy              =    -737.76167476 Ry
     estimated scf accuracy    <    1066.09390777 Ry

     total magnetization       =     0.17 Bohr mag/cell
     absolute magnetization    =   130.34 Bohr mag/cell

     iteration # 96     ecut=    60.00 Ry     beta= 0.70
     Davidson diagonalization with overlap
     ethr =  4.42E-04,  avg # of iterations =  8.2

     negative rho (up, down):  1.247E+01 1.236E+01

     total cpu time spent up to now is      565.2 secs

     total energy              =    -692.67152150 Ry
     estimated scf accuracy    <    1529.86077874 Ry

     total magnetization       =    -0.29 Bohr mag/cell
     absolute magnetization    =   111.42 Bohr mag/cell

     iteration # 97     ecut=    60.00 Ry     beta= 0.70
     Davidson diagonalization with overlap
     ethr =  4.42E-04,  avg # of iterations =  7.4

     negative rho (up, down):  1.253E+01 1.464E+01

     total cpu time spent up to now is      571.7 secs

     total energy              =    -749.96582817 Ry
     estimated scf accuracy    <    1080.53727543 Ry

     total magnetization       =    -0.17 Bohr mag/cell
     absolute magnetization    =   130.62 Bohr mag/cell

     iteration # 98     ecut=    60.00 Ry     beta= 0.70
     Davidson diagonalization with overlap
     ethr =  4.42E-04,  avg # of iterations = 11.4

     negative rho (up, down):  1.339E+01 1.370E+01

     total cpu time spent up to now is      580.4 secs

     total energy              =    -526.67364762 Ry
     estimated scf accuracy    <    4103.69541636 Ry

     total magnetization       =    -0.01 Bohr mag/cell
     absolute magnetization    =    51.43 Bohr mag/cell

     iteration # 99     ecut=    60.00 Ry     beta= 0.70
     Davidson diagonalization with overlap
     ethr =  4.42E-04,  avg # of iterations =  9.4

     negative rho (up, down):  1.323E+01 1.534E+01

     total cpu time spent up to now is      588.5 secs

     total energy              =    -745.73987649 Ry
     estimated scf accuracy    <    1069.23535417 Ry

     total magnetization       =    -0.05 Bohr mag/cell
     absolute magnetization    =   125.29 Bohr mag/cell

     iteration #100     ecut=    60.00 Ry     beta= 0.70
     Davidson diagonalization with overlap
     ethr =  4.42E-04,  avg # of iterations = 11.6

     negative rho (up, down):  1.330E+01 1.339E+01

     total cpu time spent up to now is      597.3 secs

     total energy              =    -569.16399397 Ry
     estimated scf accuracy    <    3269.19671371 Ry

     total magnetization       =    -0.04 Bohr mag/cell
     absolute magnetization    =    74.36 Bohr mag/cell

     End of self-consistent calculation

     convergence NOT achieved after 100 iterations: stopping

     Writing config to output data dir ./out/pwscf.save/

     init_run     :      0.71s CPU      0.83s WALL (       1 calls)
     electrons    :    493.51s CPU    596.34s WALL (       1 calls)

     Called by init_run:
     wfcinit      :      0.58s CPU      0.67s WALL (       1 calls)
     potinit      :      0.03s CPU      0.03s WALL (       1 calls)
     hinit0       :      0.10s CPU      0.12s WALL (       1 calls)

     Called by electrons:
     c_bands      :    467.22s CPU    566.13s WALL (     100 calls)
     sum_band     :     24.89s CPU     28.64s WALL (     100 calls)
     v_of_rho     :      0.93s CPU      0.97s WALL (     101 calls)
     newd         :      0.31s CPU      0.33s WALL (     101 calls)
     mix_rho      :      0.10s CPU      0.14s WALL (     100 calls)

     Called by c_bands:
     init_us_2    :      1.03s CPU      1.29s WALL (   50652 calls)
     init_us_2:cp :      0.97s CPU      1.23s WALL (   50652 calls)
     cegterg      :    455.61s CPU    528.83s WALL (   25200 calls)

     Called by *egterg:
     cdiaghg      :    112.02s CPU    131.30s WALL (  197523 calls)
     h_psi        :    226.71s CPU    266.20s WALL (  197775 calls)
     s_psi        :     14.58s CPU     16.49s WALL (  197775 calls)
     g_psi        :      0.72s CPU      0.80s WALL (  172323 calls)

     Called by h_psi:
     h_psi:calbec :     15.87s CPU     18.54s WALL (  197775 calls)
     vloc_psi     :    194.94s CPU    229.43s WALL (  197775 calls)
     add_vuspsi   :     14.93s CPU     17.11s WALL (  197775 calls)

     General routines
     calbec       :     18.43s CPU     21.50s WALL (  222975 calls)
     fft          :      0.28s CPU      0.33s WALL (    2523 calls)
     ffts         :      0.02s CPU      0.02s WALL (     402 calls)
     fftw         :    202.56s CPU    238.02s WALL ( 6184298 calls)
     interpolate  :      0.03s CPU      0.04s WALL (     202 calls)
     davcio       :      0.00s CPU      0.00s WALL (      18 calls)

     Parallel routines

     PWSCF        :   8m14.36s CPU   9m57.37s WALL


   This run was terminated on:  15:52:56  23Jun2023            

=------------------------------------------------------------------------------=
   JOB DONE.
=------------------------------------------------------------------------------=
Note: The following floating-point exceptions are signalling: IEEE_DENORMAL
Note: The following floating-point exceptions are signalling: IEEE_DENORMAL
