Ignoring PCI device with non-16bit domain.
Pass --enable-32bits-pci-domain to configure to support such devices
(warning: it would break the library ABI, don't enable unless really needed).

     Program PWSCF v.7.1 starts on 18Jun2023 at 15:20:15 

     This program is part of the open-source Quantum ESPRESSO suite
     for quantum simulation of materials; please cite
         "P. Giannozzi et al., J. Phys.:Condens. Matter 21 395502 (2009);
         "P. Giannozzi et al., J. Phys.:Condens. Matter 29 465901 (2017);
         "P. Giannozzi et al., J. Chem. Phys. 152 154105 (2020);
          URL http://www.quantum-espresso.org", 
     in publications or presentations arising from this work. More details at
     http://www.quantum-espresso.org/quote

     Parallel version (MPI), running on    24 processors

     MPI processes distributed on     1 nodes
     9658 MiB available memory on the printing compute node when the environment starts

     Reading input from Ni_orthorhombic_baco_atoms.in

     Current dimensions of program PWSCF are:
     Max number of different atomic species (ntypx) = 10
     Max number of k-points (npk) =  40000
     Max angular momentum in pseudopotentials (lmaxx) =  4

     K-points division:     npool     =       2
     R & G space division:  proc/nbgrp/npool/nimage =      12
     Subspace diagonalization in iterative solution of the eigenvalue problem:
     a serial algorithm will be used


     Parallelization info
     --------------------
     sticks:   dense  smooth     PW     G-vecs:    dense   smooth      PW
     Min          55      27      9                 1815      639     123
     Max          56      28     10                 1818      644     127
     Sum         665     335    111                21789     7713    1503

     Using Slab Decomposition



     bravais-lattice index     =            0
     lattice parameter (alat)  =       4.2143  a.u.
     unit-cell volume          =     122.5423 (a.u.)^3
     number of atoms/cell      =            1
     number of atomic types    =            1
     number of electrons       =        18.00
     number of Kohn-Sham states=           13
     kinetic-energy cutoff     =      60.0000  Ry
     charge density cutoff     =     480.0000  Ry
     scf convergence threshold =      1.0E-06
     mixing beta               =       0.7000
     number of iterations used =            8  TF        mixing
     energy convergence thresh.=      1.0E-05
     force convergence thresh. =      1.0E-04
     press convergence thresh. =      5.0E-01
     Exchange-correlation= PBE
                           (   1   4   3   4   0   0   0)
     nstep                     =           50


     celldm(1)=   4.214335  celldm(2)=   0.000000  celldm(3)=   0.000000
     celldm(4)=   0.000000  celldm(5)=   0.000000  celldm(6)=   0.000000

     crystal axes: (cart. coord. in units of alat)
               a(1) = (   1.000000   0.000000   0.000000 )  
               a(2) = (  -0.180330   0.983606   0.000000 )  
               a(3) = (   0.000000   0.000000   1.664477 )  

     reciprocal axes: (cart. coord. in units 2 pi/alat)
               b(1) = (  1.000000  0.183336 -0.000000 )  
               b(2) = (  0.000000  1.016667  0.000000 )  
               b(3) = (  0.000000 -0.000000  0.600789 )  


     PseudoPot. # 1 for Ni read from file:
     /home/jmgoff/work/automation/qe_pseudos/Ni.upf
     MD5 check sum: caf20d35bef94d268ef04de15446df97
     Pseudo is Ultrasoft + core correction, Zval = 18.0
     Generated using 'atomic' code by A. Dal Corso  v.7.1
     Using radial grid of 1195 points,  6 beta functions with: 
                l(1) =   0
                l(2) =   0
                l(3) =   1
                l(4) =   1
                l(5) =   2
                l(6) =   2
     Q(r) pseudized with 0 coefficients 


     atomic species   valence    mass     pseudopotential
        Ni            18.00    58.69340     Ni( 1.00)

     Starting magnetic structure 
     atomic species   magnetization
        Ni           1.000

     No symmetry found



   Cartesian axes

     site n.     atom                  positions (alat units)
         1           Ni  tau(   1) = (   0.0000000   0.0000000   0.0000000  )

     number of k points=   304  Marzari-Vanderbilt smearing, width (Ry)=  0.0100

     Number of k-points >= 100: set verbosity='high' to print them.

     Dense  grid:    21789 G-vectors     FFT dimensions: (  30,  30,  50)

     Smooth grid:     7713 G-vectors     FFT dimensions: (  24,  24,  36)

     Estimated max dynamical RAM per process >      12.98 MB

     Estimated total dynamical RAM >     300.94 MB

     Check: negative core charge=   -0.000001
     Generating pointlists ...
     new r_m :   0.4125 (alat units)  1.7384 (a.u.) for type    1

     Initial potential from superposition of free atoms

     starting charge      17.9998, renormalised to      18.0000
     Starting wfcs are   10 randomized atomic wfcs +    3 random wfcs

     total cpu time spent up to now is        0.7 secs

     Self-consistent Calculation

     iteration #  1     ecut=    60.00 Ry     beta= 0.70
     Davidson diagonalization with overlap
     ethr =  1.00E-02,  avg # of iterations =  5.8

     negative rho (up, down):  0.000E+00 1.967E-04

     total cpu time spent up to now is        3.1 secs

     total energy              =    -335.57635240 Ry
     estimated scf accuracy    <       9.06382184 Ry

     total magnetization       =     6.81 Bohr mag/cell
     absolute magnetization    =     6.81 Bohr mag/cell

     iteration #  2     ecut=    60.00 Ry     beta= 0.70
     Davidson diagonalization with overlap
     ethr =  1.00E-02,  avg # of iterations =  2.6

     total cpu time spent up to now is        4.8 secs

     total energy              =    -338.48776800 Ry
     estimated scf accuracy    <       8.71222156 Ry

     total magnetization       =     0.53 Bohr mag/cell
     absolute magnetization    =     0.79 Bohr mag/cell

     iteration #  3     ecut=    60.00 Ry     beta= 0.70
     Davidson diagonalization with overlap
     ethr =  1.00E-02,  avg # of iterations =  2.0

     negative rho (up, down):  0.000E+00 3.986E-04

     total cpu time spent up to now is        6.2 secs

     total energy              =    -339.54392575 Ry
     estimated scf accuracy    <       1.23944522 Ry

     total magnetization       =     1.52 Bohr mag/cell
     absolute magnetization    =     1.66 Bohr mag/cell

     iteration #  4     ecut=    60.00 Ry     beta= 0.70
     Davidson diagonalization with overlap
     ethr =  6.89E-03,  avg # of iterations =  2.6

     negative rho (up, down):  0.000E+00 1.932E-05

     total cpu time spent up to now is        7.9 secs

     total energy              =    -335.03686629 Ry
     estimated scf accuracy    <     287.95321943 Ry

     total magnetization       =     0.78 Bohr mag/cell
     absolute magnetization    =    24.56 Bohr mag/cell

     iteration #  5     ecut=    60.00 Ry     beta= 0.70
     Davidson diagonalization with overlap
     ethr =  6.89E-03,  avg # of iterations =  2.5

     total cpu time spent up to now is        9.4 secs

     total energy              =    -339.46365882 Ry
     estimated scf accuracy    <       0.20974398 Ry

     total magnetization       =     1.00 Bohr mag/cell
     absolute magnetization    =     1.47 Bohr mag/cell

     iteration #  6     ecut=    60.00 Ry     beta= 0.70
     Davidson diagonalization with overlap
     ethr =  1.17E-03,  avg # of iterations =  2.5

     total cpu time spent up to now is       11.0 secs

     total energy              =    -339.09790454 Ry
     estimated scf accuracy    <      38.62986161 Ry

     total magnetization       =     0.70 Bohr mag/cell
     absolute magnetization    =     8.99 Bohr mag/cell

     iteration #  7     ecut=    60.00 Ry     beta= 0.70
     Davidson diagonalization with overlap
     ethr =  1.17E-03,  avg # of iterations =  2.0

     total cpu time spent up to now is       12.5 secs

     total energy              =    -339.45975046 Ry
     estimated scf accuracy    <       2.86116846 Ry

     total magnetization       =     0.80 Bohr mag/cell
     absolute magnetization    =     1.90 Bohr mag/cell

     iteration #  8     ecut=    60.00 Ry     beta= 0.70
     Davidson diagonalization with overlap
     ethr =  1.17E-03,  avg # of iterations =  2.0

     total cpu time spent up to now is       13.8 secs

     total energy              =    -339.51527606 Ry
     estimated scf accuracy    <       0.89759691 Ry

     total magnetization       =     0.81 Bohr mag/cell
     absolute magnetization    =     1.78 Bohr mag/cell

     iteration #  9     ecut=    60.00 Ry     beta= 0.70
     Davidson diagonalization with overlap
     ethr =  1.17E-03,  avg # of iterations =  2.0

     total cpu time spent up to now is       15.1 secs

     total energy              =    -339.46053884 Ry
     estimated scf accuracy    <       2.62958028 Ry

     total magnetization       =     0.82 Bohr mag/cell
     absolute magnetization    =     2.71 Bohr mag/cell

     iteration # 10     ecut=    60.00 Ry     beta= 0.70
     Davidson diagonalization with overlap
     ethr =  1.17E-03,  avg # of iterations =  2.0

     total cpu time spent up to now is       16.4 secs

     total energy              =    -339.49612232 Ry
     estimated scf accuracy    <       0.22588520 Ry

     total magnetization       =     0.88 Bohr mag/cell
     absolute magnetization    =     1.23 Bohr mag/cell

     iteration # 11     ecut=    60.00 Ry     beta= 0.70
     Davidson diagonalization with overlap
     ethr =  1.17E-03,  avg # of iterations =  1.4

     total cpu time spent up to now is       17.6 secs

     total energy              =    -339.49315054 Ry
     estimated scf accuracy    <       0.29527056 Ry

     total magnetization       =     0.84 Bohr mag/cell
     absolute magnetization    =     1.24 Bohr mag/cell

     iteration # 12     ecut=    60.00 Ry     beta= 0.70
     Davidson diagonalization with overlap
     ethr =  1.17E-03,  avg # of iterations =  1.1

     total cpu time spent up to now is       18.7 secs

     total energy              =    -339.49598917 Ry
     estimated scf accuracy    <       0.03220555 Ry

     total magnetization       =     0.86 Bohr mag/cell
     absolute magnetization    =     1.01 Bohr mag/cell

     iteration # 13     ecut=    60.00 Ry     beta= 0.70
     Davidson diagonalization with overlap
     ethr =  1.79E-04,  avg # of iterations =  1.5

     total cpu time spent up to now is       20.0 secs

     total energy              =    -339.49412512 Ry
     estimated scf accuracy    <       0.08222486 Ry

     total magnetization       =     0.87 Bohr mag/cell
     absolute magnetization    =     1.00 Bohr mag/cell

     iteration # 14     ecut=    60.00 Ry     beta= 0.70
     Davidson diagonalization with overlap
     ethr =  1.79E-04,  avg # of iterations =  2.0

     total cpu time spent up to now is       21.3 secs

     total energy              =    -339.49728141 Ry
     estimated scf accuracy    <       0.06595891 Ry

     total magnetization       =     0.87 Bohr mag/cell
     absolute magnetization    =     1.11 Bohr mag/cell

     iteration # 15     ecut=    60.00 Ry     beta= 0.70
     Davidson diagonalization with overlap
     ethr =  1.79E-04,  avg # of iterations =  1.0

     total cpu time spent up to now is       22.4 secs

     total energy              =    -339.49684510 Ry
     estimated scf accuracy    <       0.07207428 Ry

     total magnetization       =     0.88 Bohr mag/cell
     absolute magnetization    =     1.13 Bohr mag/cell

     iteration # 16     ecut=    60.00 Ry     beta= 0.70
     Davidson diagonalization with overlap
     ethr =  1.79E-04,  avg # of iterations =  1.0

     total cpu time spent up to now is       23.4 secs

     total energy              =    -339.49696350 Ry
     estimated scf accuracy    <       0.04526896 Ry

     total magnetization       =     0.88 Bohr mag/cell
     absolute magnetization    =     1.08 Bohr mag/cell

     iteration # 17     ecut=    60.00 Ry     beta= 0.70
     Davidson diagonalization with overlap
     ethr =  1.79E-04,  avg # of iterations =  1.0

     total cpu time spent up to now is       24.5 secs

     total energy              =    -339.49708844 Ry
     estimated scf accuracy    <       0.03214100 Ry

     total magnetization       =     0.88 Bohr mag/cell
     absolute magnetization    =     1.05 Bohr mag/cell

     iteration # 18     ecut=    60.00 Ry     beta= 0.70
     Davidson diagonalization with overlap
     ethr =  1.79E-04,  avg # of iterations =  1.0

     total cpu time spent up to now is       25.6 secs

     total energy              =    -339.49686023 Ry
     estimated scf accuracy    <       0.03291530 Ry

     total magnetization       =     0.88 Bohr mag/cell
     absolute magnetization    =     1.05 Bohr mag/cell

     iteration # 19     ecut=    60.00 Ry     beta= 0.70
     Davidson diagonalization with overlap
     ethr =  1.79E-04,  avg # of iterations =  1.0

     total cpu time spent up to now is       26.7 secs

     total energy              =    -339.49732854 Ry
     estimated scf accuracy    <       0.08926702 Ry

     total magnetization       =     0.87 Bohr mag/cell
     absolute magnetization    =     1.14 Bohr mag/cell

     iteration # 20     ecut=    60.00 Ry     beta= 0.70
     Davidson diagonalization with overlap
     ethr =  1.79E-04,  avg # of iterations =  2.0

     total cpu time spent up to now is       28.0 secs

     total energy              =    -339.50090666 Ry
     estimated scf accuracy    <       0.32774186 Ry

     total magnetization       =     0.89 Bohr mag/cell
     absolute magnetization    =     1.41 Bohr mag/cell

     iteration # 21     ecut=    60.00 Ry     beta= 0.70
     Davidson diagonalization with overlap
     ethr =  1.79E-04,  avg # of iterations =  1.0

     total cpu time spent up to now is       29.1 secs

     total energy              =    -339.49916089 Ry
     estimated scf accuracy    <       0.28436943 Ry

     total magnetization       =     0.88 Bohr mag/cell
     absolute magnetization    =     1.36 Bohr mag/cell

     iteration # 22     ecut=    60.00 Ry     beta= 0.70
     Davidson diagonalization with overlap
     ethr =  1.79E-04,  avg # of iterations =  1.0

     total cpu time spent up to now is       30.2 secs

     total energy              =    -339.49985313 Ry
     estimated scf accuracy    <       0.22404844 Ry

     total magnetization       =     0.87 Bohr mag/cell
     absolute magnetization    =     1.30 Bohr mag/cell

     iteration # 23     ecut=    60.00 Ry     beta= 0.70
     Davidson diagonalization with overlap
     ethr =  1.79E-04,  avg # of iterations =  1.0

     total cpu time spent up to now is       31.2 secs

     total energy              =    -339.49974562 Ry
     estimated scf accuracy    <       0.28400259 Ry

     total magnetization       =     0.88 Bohr mag/cell
     absolute magnetization    =     1.34 Bohr mag/cell

     iteration # 24     ecut=    60.00 Ry     beta= 0.70
     Davidson diagonalization with overlap
     ethr =  1.79E-04,  avg # of iterations =  1.0

     total cpu time spent up to now is       32.3 secs

     total energy              =    -339.49029701 Ry
     estimated scf accuracy    <       0.28564760 Ry

     total magnetization       =     0.89 Bohr mag/cell
     absolute magnetization    =     1.37 Bohr mag/cell

     iteration # 25     ecut=    60.00 Ry     beta= 0.70
     Davidson diagonalization with overlap
     ethr =  1.79E-04,  avg # of iterations =  2.0

     total cpu time spent up to now is       33.6 secs

     total energy              =    -339.49650368 Ry
     estimated scf accuracy    <       0.01176722 Ry

     total magnetization       =     0.86 Bohr mag/cell
     absolute magnetization    =     1.00 Bohr mag/cell

     iteration # 26     ecut=    60.00 Ry     beta= 0.70
     Davidson diagonalization with overlap
     ethr =  6.54E-05,  avg # of iterations =  1.0

     total cpu time spent up to now is       34.7 secs

     total energy              =    -339.49625926 Ry
     estimated scf accuracy    <       0.02927661 Ry

     total magnetization       =     0.87 Bohr mag/cell
     absolute magnetization    =     1.04 Bohr mag/cell

     iteration # 27     ecut=    60.00 Ry     beta= 0.70
     Davidson diagonalization with overlap
     ethr =  6.54E-05,  avg # of iterations =  1.5

     total cpu time spent up to now is       35.9 secs

     total energy              =    -339.49659841 Ry
     estimated scf accuracy    <       0.00543499 Ry

     total magnetization       =     0.87 Bohr mag/cell
     absolute magnetization    =     0.99 Bohr mag/cell

     iteration # 28     ecut=    60.00 Ry     beta= 0.70
     Davidson diagonalization with overlap
     ethr =  3.02E-05,  avg # of iterations =  1.0

     total cpu time spent up to now is       37.0 secs

     total energy              =    -339.49673914 Ry
     estimated scf accuracy    <       0.00035440 Ry

     total magnetization       =     0.88 Bohr mag/cell
     absolute magnetization    =     1.00 Bohr mag/cell

     iteration # 29     ecut=    60.00 Ry     beta= 0.70
     Davidson diagonalization with overlap
     ethr =  1.97E-06,  avg # of iterations =  1.3

     total cpu time spent up to now is       38.2 secs

     total energy              =    -339.49675845 Ry
     estimated scf accuracy    <       0.00004219 Ry

     total magnetization       =     0.88 Bohr mag/cell
     absolute magnetization    =     1.01 Bohr mag/cell

     iteration # 30     ecut=    60.00 Ry     beta= 0.70
     Davidson diagonalization with overlap
     ethr =  2.34E-07,  avg # of iterations =  1.4

     total cpu time spent up to now is       39.3 secs

     total energy              =    -339.49676099 Ry
     estimated scf accuracy    <       0.00002087 Ry

     total magnetization       =     0.89 Bohr mag/cell
     absolute magnetization    =     1.01 Bohr mag/cell

     iteration # 31     ecut=    60.00 Ry     beta= 0.70
     Davidson diagonalization with overlap
     ethr =  1.16E-07,  avg # of iterations =  1.5

     total cpu time spent up to now is       40.6 secs

     total energy              =    -339.49676270 Ry
     estimated scf accuracy    <       0.00001242 Ry

     total magnetization       =     0.89 Bohr mag/cell
     absolute magnetization    =     1.01 Bohr mag/cell

     iteration # 32     ecut=    60.00 Ry     beta= 0.70
     Davidson diagonalization with overlap
     ethr =  6.90E-08,  avg # of iterations =  1.0

     total cpu time spent up to now is       41.7 secs

     total energy              =    -339.49676295 Ry
     estimated scf accuracy    <       0.00001273 Ry

     total magnetization       =     0.89 Bohr mag/cell
     absolute magnetization    =     1.01 Bohr mag/cell

     iteration # 33     ecut=    60.00 Ry     beta= 0.70
     Davidson diagonalization with overlap
     ethr =  6.90E-08,  avg # of iterations =  1.0

     total cpu time spent up to now is       42.8 secs

     total energy              =    -339.49676294 Ry
     estimated scf accuracy    <       0.00001486 Ry

     total magnetization       =     0.89 Bohr mag/cell
     absolute magnetization    =     1.01 Bohr mag/cell

     iteration # 34     ecut=    60.00 Ry     beta= 0.70
     Davidson diagonalization with overlap
     ethr =  6.90E-08,  avg # of iterations =  1.0

     total cpu time spent up to now is       43.9 secs

     total energy              =    -339.49676281 Ry
     estimated scf accuracy    <       0.00000750 Ry

     total magnetization       =     0.89 Bohr mag/cell
     absolute magnetization    =     1.01 Bohr mag/cell

     iteration # 35     ecut=    60.00 Ry     beta= 0.70
     Davidson diagonalization with overlap
     ethr =  4.17E-08,  avg # of iterations =  1.3

     total cpu time spent up to now is       45.0 secs

     total energy              =    -339.49676287 Ry
     estimated scf accuracy    <       0.00000491 Ry

     total magnetization       =     0.89 Bohr mag/cell
     absolute magnetization    =     1.01 Bohr mag/cell

     iteration # 36     ecut=    60.00 Ry     beta= 0.70
     Davidson diagonalization with overlap
     ethr =  2.73E-08,  avg # of iterations =  1.5

     total cpu time spent up to now is       46.3 secs

     total energy              =    -339.49676298 Ry
     estimated scf accuracy    <       0.00001000 Ry

     total magnetization       =     0.89 Bohr mag/cell
     absolute magnetization    =     1.01 Bohr mag/cell

     iteration # 37     ecut=    60.00 Ry     beta= 0.70
     Davidson diagonalization with overlap
     ethr =  2.73E-08,  avg # of iterations =  1.5

     total cpu time spent up to now is       47.6 secs

     total energy              =    -339.49676253 Ry
     estimated scf accuracy    <       0.00003908 Ry

     total magnetization       =     0.89 Bohr mag/cell
     absolute magnetization    =     1.01 Bohr mag/cell

     iteration # 38     ecut=    60.00 Ry     beta= 0.70
     Davidson diagonalization with overlap
     ethr =  2.73E-08,  avg # of iterations =  2.0

     total cpu time spent up to now is       48.9 secs

     total energy              =    -339.49676286 Ry
     estimated scf accuracy    <       0.00000387 Ry

     total magnetization       =     0.89 Bohr mag/cell
     absolute magnetization    =     1.01 Bohr mag/cell

     iteration # 39     ecut=    60.00 Ry     beta= 0.70
     Davidson diagonalization with overlap
     ethr =  2.15E-08,  avg # of iterations =  1.0

     Magnetic moment per site  (integrated on atomic sphere of radius R)
     atom   1 (R=0.412)  charge= 16.1052  magn=  0.9426

     total cpu time spent up to now is       49.9 secs

     End of self-consistent calculation

     Number of k-points >= 100: set verbosity='high' to print the bands.

     the Fermi energy is     8.8657 ev

!    total energy              =    -339.49676298 Ry
     estimated scf accuracy    <       0.00000014 Ry
     smearing contrib. (-TS)   =       0.00016698 Ry
     internal energy E=F+TS    =    -339.49692996 Ry

     The total energy is F=E-TS. E is the sum of the following terms:
     one-electron contribution =    -288.64361246 Ry
     hartree contribution      =     149.84739106 Ry
     xc contribution           =     -34.25954287 Ry
     ewald contribution        =    -166.44116569 Ry

     total magnetization       =     0.89 Bohr mag/cell
     absolute magnetization    =     1.01 Bohr mag/cell

     convergence has been achieved in  39 iterations

     Forces acting on atoms (cartesian axes, Ry/au):

     atom    1 type  1   force =     0.00000000    0.00000000    0.00000000

     Total force =     0.000000     Total SCF correction =     0.000396


     Computing stress (Cartesian axis) and pressure

          total   stress  (Ry/bohr**3)                   (kbar)     P=       11.41
   0.00045136  -0.00046436   0.00000006           66.40      -68.31        0.01
  -0.00046436   0.00028103  -0.00000010          -68.31       41.34       -0.01
   0.00000006  -0.00000010  -0.00049963            0.01       -0.01      -73.50


     BFGS Geometry Optimization
     Energy error            =      0.0E+00 Ry
     Gradient error          =      0.0E+00 Ry/Bohr
     Cell gradient error     =      7.3E+01 kbar

     number of scf cycles    =   1
     number of bfgs steps    =   0

     enthalpy           new  =    -339.4967629805 Ry

     new trust radius        =       0.0358431417 bohr
     new conv_thr            =       0.0000010000 Ry

     new unit-cell volume =    123.22064 a.u.^3 (    18.25942 Ang^3 )
     density =      5.33767 g/cm^3

CELL_PARAMETERS (bohr)
   4.261889268  -0.048924462   0.000006156
  -0.816670211   4.183191736  -0.000011065
   0.000010247  -0.000016845   6.927043753

ATOMIC_POSITIONS (crystal)
Ni            0.0000000000        0.0000000000        0.0000000000



     Writing config-only to output data dir ./out/pwscf.save/
     NEW-OLD atomic charge density approx. for the potential

     Check: negative core charge=   -0.000001
     extrapolated charge   18.09909, renormalised to   18.00000
     Generating pointlists ...

     total cpu time spent up to now is       50.6 secs

     Self-consistent Calculation

     iteration #  1     ecut=    60.00 Ry     beta= 0.70
     Davidson diagonalization with overlap
     ethr =  1.00E-06,  avg # of iterations =  6.8

     total cpu time spent up to now is       53.8 secs

     total energy              =    -339.40261891 Ry
     estimated scf accuracy    <       0.12979509 Ry

     total magnetization       =     1.03 Bohr mag/cell
     absolute magnetization    =     1.17 Bohr mag/cell

     iteration #  2     ecut=    60.00 Ry     beta= 0.70
     Davidson diagonalization with overlap
     ethr =  7.21E-04,  avg # of iterations =  2.9

     total cpu time spent up to now is       55.4 secs

     total energy              =    -339.51838505 Ry
     estimated scf accuracy    <       0.90108535 Ry

     total magnetization       =     0.56 Bohr mag/cell
     absolute magnetization    =     0.99 Bohr mag/cell

     iteration #  3     ecut=    60.00 Ry     beta= 0.70
     Davidson diagonalization with overlap
     ethr =  7.21E-04,  avg # of iterations =  2.0

     total cpu time spent up to now is       56.8 secs

     total energy              =    -339.23236039 Ry
     estimated scf accuracy    <      16.78787483 Ry

     total magnetization       =     0.70 Bohr mag/cell
     absolute magnetization    =     6.16 Bohr mag/cell

     iteration #  4     ecut=    60.00 Ry     beta= 0.70
     Davidson diagonalization with overlap
     ethr =  7.21E-04,  avg # of iterations =  2.0

     total cpu time spent up to now is       58.2 secs

     total energy              =    -339.50280021 Ry
     estimated scf accuracy    <       0.08986744 Ry

     total magnetization       =     0.81 Bohr mag/cell
     absolute magnetization    =     0.94 Bohr mag/cell

     iteration #  5     ecut=    60.00 Ry     beta= 0.70
     Davidson diagonalization with overlap
     ethr =  4.99E-04,  avg # of iterations =  1.1

     total cpu time spent up to now is       59.3 secs

     total energy              =    -339.50600033 Ry
     estimated scf accuracy    <       0.13594911 Ry

     total magnetization       =     0.81 Bohr mag/cell
     absolute magnetization    =     1.07 Bohr mag/cell

     iteration #  6     ecut=    60.00 Ry     beta= 0.70
     Davidson diagonalization with overlap
     ethr =  4.99E-04,  avg # of iterations =  1.0

     total cpu time spent up to now is       60.4 secs

     total energy              =    -339.49828963 Ry
     estimated scf accuracy    <       0.08507046 Ry

     total magnetization       =     0.81 Bohr mag/cell
     absolute magnetization    =     0.98 Bohr mag/cell

     iteration #  7     ecut=    60.00 Ry     beta= 0.70
     Davidson diagonalization with overlap
     ethr =  4.73E-04,  avg # of iterations =  1.0

     total cpu time spent up to now is       61.5 secs

     total energy              =    -339.50042206 Ry
     estimated scf accuracy    <       0.01959531 Ry

     total magnetization       =     0.84 Bohr mag/cell
     absolute magnetization    =     0.97 Bohr mag/cell

     iteration #  8     ecut=    60.00 Ry     beta= 0.70
     Davidson diagonalization with overlap
     ethr =  1.09E-04,  avg # of iterations =  1.0

     total cpu time spent up to now is       62.6 secs

     total energy              =    -339.50028043 Ry
     estimated scf accuracy    <       0.02411612 Ry

     total magnetization       =     0.85 Bohr mag/cell
     absolute magnetization    =     0.99 Bohr mag/cell

     iteration #  9     ecut=    60.00 Ry     beta= 0.70
     Davidson diagonalization with overlap
     ethr =  1.09E-04,  avg # of iterations =  1.0

     total cpu time spent up to now is       63.6 secs

     total energy              =    -339.50012243 Ry
     estimated scf accuracy    <       0.01024672 Ry

     total magnetization       =     0.85 Bohr mag/cell
     absolute magnetization    =     0.97 Bohr mag/cell

     iteration # 10     ecut=    60.00 Ry     beta= 0.70
     Davidson diagonalization with overlap
     ethr =  5.69E-05,  avg # of iterations =  1.0

     total cpu time spent up to now is       64.7 secs

     total energy              =    -339.49880033 Ry
     estimated scf accuracy    <       0.00596228 Ry

     total magnetization       =     0.85 Bohr mag/cell
     absolute magnetization    =     0.98 Bohr mag/cell

     iteration # 11     ecut=    60.00 Ry     beta= 0.70
     Davidson diagonalization with overlap
     ethr =  3.31E-05,  avg # of iterations =  1.1

     total cpu time spent up to now is       65.8 secs

     total energy              =    -339.49923887 Ry
     estimated scf accuracy    <       0.00480429 Ry

     total magnetization       =     0.87 Bohr mag/cell
     absolute magnetization    =     1.00 Bohr mag/cell

     iteration # 12     ecut=    60.00 Ry     beta= 0.70
     Davidson diagonalization with overlap
     ethr =  2.67E-05,  avg # of iterations =  1.0

     total cpu time spent up to now is       66.9 secs

     total energy              =    -339.49932753 Ry
     estimated scf accuracy    <       0.00055848 Ry

     total magnetization       =     0.87 Bohr mag/cell
     absolute magnetization    =     1.01 Bohr mag/cell

     iteration # 13     ecut=    60.00 Ry     beta= 0.70
     Davidson diagonalization with overlap
     ethr =  3.10E-06,  avg # of iterations =  1.0

     total cpu time spent up to now is       68.0 secs

     total energy              =    -339.49933801 Ry
     estimated scf accuracy    <       0.00005423 Ry

     total magnetization       =     0.88 Bohr mag/cell
     absolute magnetization    =     1.01 Bohr mag/cell

     iteration # 14     ecut=    60.00 Ry     beta= 0.70
     Davidson diagonalization with overlap
     ethr =  3.01E-07,  avg # of iterations =  1.0

     total cpu time spent up to now is       69.1 secs

     total energy              =    -339.49933991 Ry
     estimated scf accuracy    <       0.00000738 Ry

     total magnetization       =     0.88 Bohr mag/cell
     absolute magnetization    =     1.01 Bohr mag/cell

     iteration # 15     ecut=    60.00 Ry     beta= 0.70
     Davidson diagonalization with overlap
     ethr =  4.10E-08,  avg # of iterations =  2.3

     total cpu time spent up to now is       70.5 secs

     total energy              =    -339.49934560 Ry
     estimated scf accuracy    <       0.00035775 Ry

     total magnetization       =     0.88 Bohr mag/cell
     absolute magnetization    =     1.01 Bohr mag/cell

     iteration # 16     ecut=    60.00 Ry     beta= 0.70
     Davidson diagonalization with overlap
     ethr =  4.10E-08,  avg # of iterations =  1.0

     total cpu time spent up to now is       71.6 secs

     total energy              =    -339.49933225 Ry
     estimated scf accuracy    <       0.00039780 Ry

     total magnetization       =     0.88 Bohr mag/cell
     absolute magnetization    =     1.01 Bohr mag/cell

     iteration # 17     ecut=    60.00 Ry     beta= 0.70
     Davidson diagonalization with overlap
     ethr =  4.10E-08,  avg # of iterations =  2.0

     total cpu time spent up to now is       72.9 secs

     total energy              =    -339.49934031 Ry
     estimated scf accuracy    <       0.00000290 Ry

     total magnetization       =     0.88 Bohr mag/cell
     absolute magnetization    =     1.01 Bohr mag/cell

     iteration # 18     ecut=    60.00 Ry     beta= 0.70
     Davidson diagonalization with overlap
     ethr =  1.61E-08,  avg # of iterations =  1.7

     total cpu time spent up to now is       74.2 secs

     total energy              =    -339.49934050 Ry
     estimated scf accuracy    <       0.00000642 Ry

     total magnetization       =     0.88 Bohr mag/cell
     absolute magnetization    =     1.01 Bohr mag/cell

     iteration # 19     ecut=    60.00 Ry     beta= 0.70
     Davidson diagonalization with overlap
     ethr =  1.61E-08,  avg # of iterations =  1.0

     total cpu time spent up to now is       75.2 secs

     total energy              =    -339.49934042 Ry
     estimated scf accuracy    <       0.00000371 Ry

     total magnetization       =     0.88 Bohr mag/cell
     absolute magnetization    =     1.01 Bohr mag/cell

     iteration # 20     ecut=    60.00 Ry     beta= 0.70
     Davidson diagonalization with overlap
     ethr =  1.61E-08,  avg # of iterations =  1.0

     Magnetic moment per site  (integrated on atomic sphere of radius R)
     atom   1 (R=0.412)  charge= 16.0882  magn=  0.9377

     total cpu time spent up to now is       76.3 secs

     End of self-consistent calculation

     Number of k-points >= 100: set verbosity='high' to print the bands.

     the Fermi energy is     8.7908 ev

!    total energy              =    -339.49934068 Ry
     estimated scf accuracy    <       0.00000033 Ry
     smearing contrib. (-TS)   =       0.00001101 Ry
     internal energy E=F+TS    =    -339.49935169 Ry

     The total energy is F=E-TS. E is the sum of the following terms:
     one-electron contribution =    -285.67059737 Ry
     hartree contribution      =     148.33037788 Ry
     xc contribution           =     -34.24606014 Ry
     ewald contribution        =    -167.91307206 Ry

     total magnetization       =     0.88 Bohr mag/cell
     absolute magnetization    =     1.01 Bohr mag/cell

     convergence has been achieved in  20 iterations

     Forces acting on atoms (cartesian axes, Ry/au):

     atom    1 type  1   force =     0.00000000    0.00000000    0.00000000

     Total force =     0.000000     Total SCF correction =     0.000141


     Computing stress (Cartesian axis) and pressure

          total   stress  (Ry/bohr**3)                   (kbar)     P=      -20.84
   0.00013466  -0.00043248   0.00000001           19.81      -63.62        0.00
  -0.00043248  -0.00002377  -0.00000002          -63.62       -3.50       -0.00
   0.00000001  -0.00000002  -0.00053585            0.00       -0.00      -78.83

     Energy error            =      2.6E-03 Ry
     Gradient error          =      0.0E+00 Ry/Bohr
     Cell gradient error     =      7.9E+01 kbar

     number of scf cycles    =   2
     number of bfgs steps    =   1

     enthalpy           old  =    -339.4967629805 Ry
     enthalpy           new  =    -339.4993406803 Ry

     CASE: enthalpy          _new < enthalpy          _old

     new trust radius        =       0.0528204741 bohr
     new conv_thr            =       0.0000000010 Ry

     new unit-cell volume =    121.97614 a.u.^3 (    18.07500 Ang^3 )
     density =      5.39213 g/cm^3

CELL_PARAMETERS (bohr)
   4.308631777  -0.131942131   0.000011133
  -0.906756260   4.214210599  -0.000020532
   0.000018206  -0.000031060   6.762235675

ATOMIC_POSITIONS (crystal)
Ni            0.0000000000        0.0000000000        0.0000000000



     Writing config-only to output data dir ./out/pwscf.save/
     NEW-OLD atomic charge density approx. for the potential

     Check: negative core charge=   -0.000001
     extrapolated charge   17.81635, renormalised to   18.00000
     Generating pointlists ...

     total cpu time spent up to now is       77.0 secs

     Self-consistent Calculation

     iteration #  1     ecut=    60.00 Ry     beta= 0.70
     Davidson diagonalization with overlap
     ethr =  1.00E-06,  avg # of iterations =  8.0

     total cpu time spent up to now is       80.6 secs

     total energy              =    -339.21425568 Ry
     estimated scf accuracy    <       0.38052376 Ry

     total magnetization       =     0.58 Bohr mag/cell
     absolute magnetization    =     0.68 Bohr mag/cell

     iteration #  2     ecut=    60.00 Ry     beta= 0.70
     Davidson diagonalization with overlap
     ethr =  2.11E-03,  avg # of iterations =  2.9

     total cpu time spent up to now is       82.2 secs

     total energy              =    -339.52434970 Ry
     estimated scf accuracy    <       2.66927623 Ry

     total magnetization       =     1.06 Bohr mag/cell
     absolute magnetization    =     1.65 Bohr mag/cell

     iteration #  3     ecut=    60.00 Ry     beta= 0.70
     Davidson diagonalization with overlap
     ethr =  2.11E-03,  avg # of iterations =  2.0

     negative rho (up, down):  1.002E-07 4.016E-07

     total cpu time spent up to now is       83.6 secs

     total energy              =    -338.94291087 Ry
     estimated scf accuracy    <      36.60129564 Ry

     total magnetization       =     0.49 Bohr mag/cell
     absolute magnetization    =     9.00 Bohr mag/cell

     iteration #  4     ecut=    60.00 Ry     beta= 0.70
     Davidson diagonalization with overlap
     ethr =  2.11E-03,  avg # of iterations =  2.1

     total cpu time spent up to now is       85.0 secs

     total energy              =    -339.50660053 Ry
     estimated scf accuracy    <       0.39531225 Ry

     total magnetization       =     0.99 Bohr mag/cell
     absolute magnetization    =     1.17 Bohr mag/cell

     iteration #  5     ecut=    60.00 Ry     beta= 0.70
     Davidson diagonalization with overlap
     ethr =  2.11E-03,  avg # of iterations =  1.0

     total cpu time spent up to now is       86.1 secs

     total energy              =    -339.52496214 Ry
     estimated scf accuracy    <       0.29317822 Ry

     total magnetization       =     0.95 Bohr mag/cell
     absolute magnetization    =     1.26 Bohr mag/cell

     iteration #  6     ecut=    60.00 Ry     beta= 0.70
     Davidson diagonalization with overlap
     ethr =  1.63E-03,  avg # of iterations =  1.0

     total cpu time spent up to now is       87.2 secs

     total energy              =    -339.50502606 Ry
     estimated scf accuracy    <       0.19142816 Ry

     total magnetization       =     0.94 Bohr mag/cell
     absolute magnetization    =     1.09 Bohr mag/cell

     iteration #  7     ecut=    60.00 Ry     beta= 0.70
     Davidson diagonalization with overlap
     ethr =  1.06E-03,  avg # of iterations =  1.0

     total cpu time spent up to now is       88.3 secs

     total energy              =    -339.50708019 Ry
     estimated scf accuracy    <       0.05479681 Ry

     total magnetization       =     0.94 Bohr mag/cell
     absolute magnetization    =     1.06 Bohr mag/cell

     iteration #  8     ecut=    60.00 Ry     beta= 0.70
     Davidson diagonalization with overlap
     ethr =  3.04E-04,  avg # of iterations =  1.0

     total cpu time spent up to now is       89.4 secs

     total energy              =    -339.50734532 Ry
     estimated scf accuracy    <       0.03566659 Ry

     total magnetization       =     0.93 Bohr mag/cell
     absolute magnetization    =     1.05 Bohr mag/cell

     iteration #  9     ecut=    60.00 Ry     beta= 0.70
     Davidson diagonalization with overlap
     ethr =  1.98E-04,  avg # of iterations =  1.0

     total cpu time spent up to now is       90.5 secs

     total energy              =    -339.50695804 Ry
     estimated scf accuracy    <       0.03596397 Ry

     total magnetization       =     0.92 Bohr mag/cell
     absolute magnetization    =     1.05 Bohr mag/cell

     iteration # 10     ecut=    60.00 Ry     beta= 0.70
     Davidson diagonalization with overlap
     ethr =  1.98E-04,  avg # of iterations =  1.0

     total cpu time spent up to now is       91.5 secs

     total energy              =    -339.50012287 Ry
     estimated scf accuracy    <       0.02876262 Ry

     total magnetization       =     0.92 Bohr mag/cell
     absolute magnetization    =     1.05 Bohr mag/cell

     iteration # 11     ecut=    60.00 Ry     beta= 0.70
     Davidson diagonalization with overlap
     ethr =  1.60E-04,  avg # of iterations =  1.0

     total cpu time spent up to now is       92.6 secs

     total energy              =    -339.50276680 Ry
     estimated scf accuracy    <       0.00099822 Ry

     total magnetization       =     0.89 Bohr mag/cell
     absolute magnetization    =     1.02 Bohr mag/cell

     iteration # 12     ecut=    60.00 Ry     beta= 0.70
     Davidson diagonalization with overlap
     ethr =  5.55E-06,  avg # of iterations =  2.1

     total cpu time spent up to now is       94.0 secs

     total energy              =    -339.50287413 Ry
     estimated scf accuracy    <       0.00087372 Ry

     total magnetization       =     0.89 Bohr mag/cell
     absolute magnetization    =     1.02 Bohr mag/cell

     iteration # 13     ecut=    60.00 Ry     beta= 0.70
     Davidson diagonalization with overlap
     ethr =  4.85E-06,  avg # of iterations =  1.0

     total cpu time spent up to now is       95.1 secs

     total energy              =    -339.50286414 Ry
     estimated scf accuracy    <       0.00023037 Ry

     total magnetization       =     0.89 Bohr mag/cell
     absolute magnetization    =     1.02 Bohr mag/cell

     iteration # 14     ecut=    60.00 Ry     beta= 0.70
     Davidson diagonalization with overlap
     ethr =  1.28E-06,  avg # of iterations =  1.6

     total cpu time spent up to now is       96.3 secs

     total energy              =    -339.50288899 Ry
     estimated scf accuracy    <       0.00037440 Ry

     total magnetization       =     0.88 Bohr mag/cell
     absolute magnetization    =     1.01 Bohr mag/cell

     iteration # 15     ecut=    60.00 Ry     beta= 0.70
     Davidson diagonalization with overlap
     ethr =  1.28E-06,  avg # of iterations =  1.5

     total cpu time spent up to now is       97.6 secs

     total energy              =    -339.50286557 Ry
     estimated scf accuracy    <       0.00112179 Ry

     total magnetization       =     0.88 Bohr mag/cell
     absolute magnetization    =     1.01 Bohr mag/cell

     iteration # 16     ecut=    60.00 Ry     beta= 0.70
     Davidson diagonalization with overlap
     ethr =  1.28E-06,  avg # of iterations =  1.5

     total cpu time spent up to now is       98.8 secs

     total energy              =    -339.50287169 Ry
     estimated scf accuracy    <       0.00017322 Ry

     total magnetization       =     0.88 Bohr mag/cell
     absolute magnetization    =     1.01 Bohr mag/cell

     iteration # 17     ecut=    60.00 Ry     beta= 0.70
     Davidson diagonalization with overlap
     ethr =  9.62E-07,  avg # of iterations =  1.0

     total cpu time spent up to now is       99.9 secs

     total energy              =    -339.50287890 Ry
     estimated scf accuracy    <       0.00000351 Ry

     total magnetization       =     0.88 Bohr mag/cell
     absolute magnetization    =     1.01 Bohr mag/cell

     iteration # 18     ecut=    60.00 Ry     beta= 0.70
     Davidson diagonalization with overlap
     ethr =  1.95E-08,  avg # of iterations =  2.0

     total cpu time spent up to now is      101.3 secs

     total energy              =    -339.50287824 Ry
     estimated scf accuracy    <       0.00004314 Ry

     total magnetization       =     0.88 Bohr mag/cell
     absolute magnetization    =     1.01 Bohr mag/cell

     iteration # 19     ecut=    60.00 Ry     beta= 0.70
     Davidson diagonalization with overlap
     ethr =  1.95E-08,  avg # of iterations =  2.0

     total cpu time spent up to now is      102.6 secs

     total energy              =    -339.50287916 Ry
     estimated scf accuracy    <       0.00001634 Ry

     total magnetization       =     0.88 Bohr mag/cell
     absolute magnetization    =     1.01 Bohr mag/cell

     iteration # 20     ecut=    60.00 Ry     beta= 0.70
     Davidson diagonalization with overlap
     ethr =  1.95E-08,  avg # of iterations =  1.5

     total cpu time spent up to now is      103.9 secs

     total energy              =    -339.50287932 Ry
     estimated scf accuracy    <       0.00001804 Ry

     total magnetization       =     0.88 Bohr mag/cell
     absolute magnetization    =     1.01 Bohr mag/cell

     iteration # 21     ecut=    60.00 Ry     beta= 0.70
     Davidson diagonalization with overlap
     ethr =  1.95E-08,  avg # of iterations =  1.0

     total cpu time spent up to now is      105.0 secs

     total energy              =    -339.50287921 Ry
     estimated scf accuracy    <       0.00001590 Ry

     total magnetization       =     0.88 Bohr mag/cell
     absolute magnetization    =     1.01 Bohr mag/cell

     iteration # 22     ecut=    60.00 Ry     beta= 0.70
     Davidson diagonalization with overlap
     ethr =  1.95E-08,  avg # of iterations =  1.8

     total cpu time spent up to now is      106.3 secs

     total energy              =    -339.50287960 Ry
     estimated scf accuracy    <       0.00000257 Ry

     total magnetization       =     0.88 Bohr mag/cell
     absolute magnetization    =     1.01 Bohr mag/cell

     iteration # 23     ecut=    60.00 Ry     beta= 0.70
     Davidson diagonalization with overlap
     ethr =  1.43E-08,  avg # of iterations =  1.5

     total cpu time spent up to now is      107.6 secs

     total energy              =    -339.50287958 Ry
     estimated scf accuracy    <       0.00001422 Ry

     total magnetization       =     0.88 Bohr mag/cell
     absolute magnetization    =     1.01 Bohr mag/cell

     iteration # 24     ecut=    60.00 Ry     beta= 0.70
     Davidson diagonalization with overlap
     ethr =  1.43E-08,  avg # of iterations =  1.0

     total cpu time spent up to now is      108.7 secs

     total energy              =    -339.50287973 Ry
     estimated scf accuracy    <       0.00000757 Ry

     total magnetization       =     0.88 Bohr mag/cell
     absolute magnetization    =     1.01 Bohr mag/cell

     iteration # 25     ecut=    60.00 Ry     beta= 0.70
     Davidson diagonalization with overlap
     ethr =  1.43E-08,  avg # of iterations =  1.4

     total cpu time spent up to now is      109.8 secs

     total energy              =    -339.50287918 Ry
     estimated scf accuracy    <       0.00001953 Ry

     total magnetization       =     0.88 Bohr mag/cell
     absolute magnetization    =     1.01 Bohr mag/cell

     iteration # 26     ecut=    60.00 Ry     beta= 0.70
     Davidson diagonalization with overlap
     ethr =  1.43E-08,  avg # of iterations =  2.0

     total cpu time spent up to now is      111.2 secs

     total energy              =    -339.50287964 Ry
     estimated scf accuracy    <       0.00000013 Ry

     total magnetization       =     0.88 Bohr mag/cell
     absolute magnetization    =     1.01 Bohr mag/cell

     iteration # 27     ecut=    60.00 Ry     beta= 0.70
     Davidson diagonalization with overlap
     ethr =  7.37E-10,  avg # of iterations =  1.8

     total cpu time spent up to now is      112.4 secs

     total energy              =    -339.50287965 Ry
     estimated scf accuracy    <       0.00000042 Ry

     total magnetization       =     0.88 Bohr mag/cell
     absolute magnetization    =     1.01 Bohr mag/cell

     iteration # 28     ecut=    60.00 Ry     beta= 0.70
     Davidson diagonalization with overlap
     ethr =  7.37E-10,  avg # of iterations =  1.0

     total cpu time spent up to now is      113.5 secs

     total energy              =    -339.50287965 Ry
     estimated scf accuracy    <       0.00000046 Ry

     total magnetization       =     0.88 Bohr mag/cell
     absolute magnetization    =     1.01 Bohr mag/cell

     iteration # 29     ecut=    60.00 Ry     beta= 0.70
     Davidson diagonalization with overlap
     ethr =  7.37E-10,  avg # of iterations =  1.0

     total cpu time spent up to now is      114.6 secs

     total energy              =    -339.50287965 Ry
     estimated scf accuracy    <       0.00000027 Ry

     total magnetization       =     0.88 Bohr mag/cell
     absolute magnetization    =     1.01 Bohr mag/cell

     iteration # 30     ecut=    60.00 Ry     beta= 0.70
     Davidson diagonalization with overlap
     ethr =  7.37E-10,  avg # of iterations =  1.0

     total cpu time spent up to now is      115.6 secs

     total energy              =    -339.50287966 Ry
     estimated scf accuracy    <       0.00000013 Ry

     total magnetization       =     0.88 Bohr mag/cell
     absolute magnetization    =     1.01 Bohr mag/cell

     iteration # 31     ecut=    60.00 Ry     beta= 0.70
     Davidson diagonalization with overlap
     ethr =  7.04E-10,  avg # of iterations =  1.5

     total cpu time spent up to now is      116.9 secs

     total energy              =    -339.50287964 Ry
     estimated scf accuracy    <       0.00000074 Ry

     total magnetization       =     0.88 Bohr mag/cell
     absolute magnetization    =     1.01 Bohr mag/cell

     iteration # 32     ecut=    60.00 Ry     beta= 0.70
     Davidson diagonalization with overlap
     ethr =  7.04E-10,  avg # of iterations =  2.0

     total cpu time spent up to now is      118.2 secs

     total energy              =    -339.50287965 Ry
     estimated scf accuracy    <       0.00000039 Ry

     total magnetization       =     0.88 Bohr mag/cell
     absolute magnetization    =     1.01 Bohr mag/cell

     iteration # 33     ecut=    60.00 Ry     beta= 0.70
     Davidson diagonalization with overlap
     ethr =  7.04E-10,  avg # of iterations =  1.5

     total cpu time spent up to now is      119.5 secs

     total energy              =    -339.50287966 Ry
     estimated scf accuracy    <       0.00000002 Ry

     total magnetization       =     0.88 Bohr mag/cell
     absolute magnetization    =     1.01 Bohr mag/cell

     iteration # 34     ecut=    60.00 Ry     beta= 0.70
     Davidson diagonalization with overlap
     ethr =  1.04E-10,  avg # of iterations =  1.8

     total cpu time spent up to now is      120.8 secs

     total energy              =    -339.50287966 Ry
     estimated scf accuracy    <       0.00000008 Ry

     total magnetization       =     0.88 Bohr mag/cell
     absolute magnetization    =     1.01 Bohr mag/cell

     iteration # 35     ecut=    60.00 Ry     beta= 0.70
     Davidson diagonalization with overlap
     ethr =  1.04E-10,  avg # of iterations =  1.5

     total cpu time spent up to now is      122.1 secs

     total energy              =    -339.50287966 Ry
     estimated scf accuracy    <          3.4E-09 Ry

     total magnetization       =     0.88 Bohr mag/cell
     absolute magnetization    =     1.01 Bohr mag/cell

     iteration # 36     ecut=    60.00 Ry     beta= 0.70
     Davidson diagonalization with overlap
     ethr =  1.88E-11,  avg # of iterations =  1.5

     total cpu time spent up to now is      123.3 secs

     total energy              =    -339.50287966 Ry
     estimated scf accuracy    <          5.4E-09 Ry

     total magnetization       =     0.88 Bohr mag/cell
     absolute magnetization    =     1.01 Bohr mag/cell

     iteration # 37     ecut=    60.00 Ry     beta= 0.70
     Davidson diagonalization with overlap
     ethr =  1.88E-11,  avg # of iterations =  1.5

     total cpu time spent up to now is      124.5 secs

     total energy              =    -339.50287966 Ry
     estimated scf accuracy    <          1.7E-09 Ry

     total magnetization       =     0.88 Bohr mag/cell
     absolute magnetization    =     1.01 Bohr mag/cell

     iteration # 38     ecut=    60.00 Ry     beta= 0.70
     Davidson diagonalization with overlap
     ethr =  9.60E-12,  avg # of iterations =  1.0

     Magnetic moment per site  (integrated on atomic sphere of radius R)
     atom   1 (R=0.412)  charge= 16.0723  magn=  0.9360

     total cpu time spent up to now is      125.6 secs

     End of self-consistent calculation

     Number of k-points >= 100: set verbosity='high' to print the bands.

     the Fermi energy is     8.9287 ev

!    total energy              =    -339.50287966 Ry
     estimated scf accuracy    <          3.3E-10 Ry
     smearing contrib. (-TS)   =      -0.00021571 Ry
     internal energy E=F+TS    =    -339.50266395 Ry

     The total energy is F=E-TS. E is the sum of the following terms:
     one-electron contribution =    -279.91317515 Ry
     hartree contribution      =     145.55589558 Ry
     xc contribution           =     -34.23427842 Ry
     ewald contribution        =    -170.91110596 Ry

     total magnetization       =     0.88 Bohr mag/cell
     absolute magnetization    =     1.01 Bohr mag/cell

     convergence has been achieved in  38 iterations

     Forces acting on atoms (cartesian axes, Ry/au):

     atom    1 type  1   force =     0.00000000    0.00000000    0.00000000

     Total force =     0.000000     Total SCF correction =     0.000013


     Computing stress (Cartesian axis) and pressure

          total   stress  (Ry/bohr**3)                   (kbar)     P=      -56.94
  -0.00019778  -0.00037437  -0.00000001          -29.09      -55.07       -0.00
  -0.00037437  -0.00033507   0.00000001          -55.07      -49.29        0.00
  -0.00000001   0.00000001  -0.00062845           -0.00        0.00      -92.45

     Energy error            =      3.5E-03 Ry
     Gradient error          =      0.0E+00 Ry/Bohr
     Cell gradient error     =      9.2E+01 kbar

     number of scf cycles    =   3
     number of bfgs steps    =   2

     enthalpy           old  =    -339.4993406803 Ry
     enthalpy           new  =    -339.5028796577 Ry

     CASE: enthalpy          _new < enthalpy          _old

     new trust radius        =       0.0807508109 bohr
     new conv_thr            =       0.0000000010 Ry

     new unit-cell volume =    118.68586 a.u.^3 (    17.58743 Ang^3 )
     density =      5.54161 g/cm^3

CELL_PARAMETERS (bohr)
   4.355933360  -0.245930105   0.000018907
  -1.027405390   4.240176546  -0.000034822
   0.000030510  -0.000052327   6.515023559

ATOMIC_POSITIONS (crystal)
Ni            0.0000000000        0.0000000000        0.0000000000



     Writing config-only to output data dir ./out/pwscf.save/
     NEW-OLD atomic charge density approx. for the potential

     Check: negative core charge=   -0.000001
     extrapolated charge   17.50100, renormalised to   18.00000
     Generating pointlists ...

     total cpu time spent up to now is      126.3 secs

     Self-consistent Calculation

     iteration #  1     ecut=    60.00 Ry     beta= 0.70
     Davidson diagonalization with overlap
     ethr =  1.00E-06,  avg # of iterations =  9.0
     Minimization algorithm failed to find Fermi energy: reverting to bisection
     Possible cause: smearing is larger than the electronic band-gap.

     total cpu time spent up to now is      130.2 secs

     total energy              =    -337.75262961 Ry
     estimated scf accuracy    <       2.26876712 Ry

     total magnetization       =     0.02 Bohr mag/cell
     absolute magnetization    =     0.17 Bohr mag/cell

     iteration #  2     ecut=    60.00 Ry     beta= 0.70
     Davidson diagonalization with overlap
     ethr =  1.00E-02,  avg # of iterations =  3.0

     total cpu time spent up to now is      131.9 secs

     total energy              =    -339.03235841 Ry
     estimated scf accuracy    <      12.17499942 Ry

     total magnetization       =     0.26 Bohr mag/cell
     absolute magnetization    =     0.31 Bohr mag/cell

     iteration #  3     ecut=    60.00 Ry     beta= 0.70
     Davidson diagonalization with overlap
     ethr =  1.00E-02,  avg # of iterations =  2.0

     total cpu time spent up to now is      133.3 secs

     total energy              =    -339.51253477 Ry
     estimated scf accuracy    <       1.61043361 Ry

     total magnetization       =     0.69 Bohr mag/cell
     absolute magnetization    =     0.78 Bohr mag/cell

     iteration #  4     ecut=    60.00 Ry     beta= 0.70
     Davidson diagonalization with overlap
     ethr =  8.95E-03,  avg # of iterations =  1.9

     total cpu time spent up to now is      134.5 secs

     total energy              =    -339.45927840 Ry
     estimated scf accuracy    <       3.92039381 Ry

     total magnetization       =     0.78 Bohr mag/cell
     absolute magnetization    =     3.04 Bohr mag/cell

     iteration #  5     ecut=    60.00 Ry     beta= 0.70
     Davidson diagonalization with overlap
     ethr =  8.95E-03,  avg # of iterations =  1.4

     total cpu time spent up to now is      135.7 secs

     total energy              =    -339.52528609 Ry
     estimated scf accuracy    <       0.23280115 Ry

     total magnetization       =     0.81 Bohr mag/cell
     absolute magnetization    =     0.87 Bohr mag/cell

     iteration #  6     ecut=    60.00 Ry     beta= 0.70
     Davidson diagonalization with overlap
     ethr =  1.29E-03,  avg # of iterations =  1.0

     total cpu time spent up to now is      136.8 secs

     total energy              =    -339.52405737 Ry
     estimated scf accuracy    <       0.33476852 Ry

     total magnetization       =     0.84 Bohr mag/cell
     absolute magnetization    =     1.18 Bohr mag/cell

     iteration #  7     ecut=    60.00 Ry     beta= 0.70
     Davidson diagonalization with overlap
     ethr =  1.29E-03,  avg # of iterations =  1.0

     total cpu time spent up to now is      137.8 secs

     total energy              =    -339.52576037 Ry
     estimated scf accuracy    <       0.16441634 Ry

     total magnetization       =     0.84 Bohr mag/cell
     absolute magnetization    =     0.92 Bohr mag/cell

     iteration #  8     ecut=    60.00 Ry     beta= 0.70
     Davidson diagonalization with overlap
     ethr =  9.13E-04,  avg # of iterations =  1.0

     total cpu time spent up to now is      138.9 secs

     total energy              =    -339.52120788 Ry
     estimated scf accuracy    <       0.14571280 Ry

     total magnetization       =     0.86 Bohr mag/cell
     absolute magnetization    =     0.94 Bohr mag/cell

     iteration #  9     ecut=    60.00 Ry     beta= 0.70
     Davidson diagonalization with overlap
     ethr =  8.10E-04,  avg # of iterations =  1.0

     total cpu time spent up to now is      140.0 secs

     total energy              =    -339.51972467 Ry
     estimated scf accuracy    <       0.14167006 Ry

     total magnetization       =     0.90 Bohr mag/cell
     absolute magnetization    =     1.06 Bohr mag/cell

     iteration # 10     ecut=    60.00 Ry     beta= 0.70
     Davidson diagonalization with overlap
     ethr =  7.87E-04,  avg # of iterations =  1.0

     total cpu time spent up to now is      141.1 secs

     total energy              =    -339.49799262 Ry
     estimated scf accuracy    <       0.09376787 Ry

     total magnetization       =     0.90 Bohr mag/cell
     absolute magnetization    =     1.00 Bohr mag/cell

     iteration # 11     ecut=    60.00 Ry     beta= 0.70
     Davidson diagonalization with overlap
     ethr =  5.21E-04,  avg # of iterations =  1.2

     total cpu time spent up to now is      142.2 secs

     total energy              =    -339.50671520 Ry
     estimated scf accuracy    <       0.00756093 Ry

     total magnetization       =     0.93 Bohr mag/cell
     absolute magnetization    =     1.07 Bohr mag/cell

     iteration # 12     ecut=    60.00 Ry     beta= 0.70
     Davidson diagonalization with overlap
     ethr =  4.20E-05,  avg # of iterations =  2.0

     total cpu time spent up to now is      143.6 secs

     total energy              =    -339.50692276 Ry
     estimated scf accuracy    <       0.01564647 Ry

     total magnetization       =     0.93 Bohr mag/cell
     absolute magnetization    =     1.08 Bohr mag/cell

     iteration # 13     ecut=    60.00 Ry     beta= 0.70
     Davidson diagonalization with overlap
     ethr =  4.20E-05,  avg # of iterations =  1.5

     total cpu time spent up to now is      144.8 secs

     total energy              =    -339.50733687 Ry
     estimated scf accuracy    <       0.00085084 Ry

     total magnetization       =     0.93 Bohr mag/cell
     absolute magnetization    =     1.08 Bohr mag/cell

     iteration # 14     ecut=    60.00 Ry     beta= 0.70
     Davidson diagonalization with overlap
     ethr =  4.73E-06,  avg # of iterations =  2.1

     total cpu time spent up to now is      146.1 secs

     total energy              =    -339.50728392 Ry
     estimated scf accuracy    <       0.00734170 Ry

     total magnetization       =     0.93 Bohr mag/cell
     absolute magnetization    =     1.08 Bohr mag/cell

     iteration # 15     ecut=    60.00 Ry     beta= 0.70
     Davidson diagonalization with overlap
     ethr =  4.73E-06,  avg # of iterations =  1.8

     total cpu time spent up to now is      147.4 secs

     total energy              =    -339.50751541 Ry
     estimated scf accuracy    <       0.00267965 Ry

     total magnetization       =     0.93 Bohr mag/cell
     absolute magnetization    =     1.08 Bohr mag/cell

     iteration # 16     ecut=    60.00 Ry     beta= 0.70
     Davidson diagonalization with overlap
     ethr =  4.73E-06,  avg # of iterations =  2.0

     total cpu time spent up to now is      148.8 secs

     total energy              =    -339.50435777 Ry
     estimated scf accuracy    <       0.13044673 Ry

     total magnetization       =     0.93 Bohr mag/cell
     absolute magnetization    =     1.25 Bohr mag/cell

     iteration # 17     ecut=    60.00 Ry     beta= 0.70
     Davidson diagonalization with overlap
     ethr =  4.73E-06,  avg # of iterations =  2.1

     total cpu time spent up to now is      150.3 secs

     total energy              =    -339.50713517 Ry
     estimated scf accuracy    <       0.00474330 Ry

     total magnetization       =     0.92 Bohr mag/cell
     absolute magnetization    =     1.06 Bohr mag/cell

     iteration # 18     ecut=    60.00 Ry     beta= 0.70
     Davidson diagonalization with overlap
     ethr =  4.73E-06,  avg # of iterations =  2.0

     total cpu time spent up to now is      151.6 secs

     total energy              =    -339.50711018 Ry
     estimated scf accuracy    <       0.00893768 Ry

     total magnetization       =     0.91 Bohr mag/cell
     absolute magnetization    =     1.05 Bohr mag/cell

     iteration # 19     ecut=    60.00 Ry     beta= 0.70
     Davidson diagonalization with overlap
     ethr =  4.73E-06,  avg # of iterations =  2.1

     total cpu time spent up to now is      153.0 secs

     total energy              =    -339.50677663 Ry
     estimated scf accuracy    <       0.03865646 Ry

     total magnetization       =     0.91 Bohr mag/cell
     absolute magnetization    =     1.10 Bohr mag/cell

     iteration # 20     ecut=    60.00 Ry     beta= 0.70
     Davidson diagonalization with overlap
     ethr =  4.73E-06,  avg # of iterations =  2.0

     total cpu time spent up to now is      154.3 secs

     total energy              =    -339.50755901 Ry
     estimated scf accuracy    <       0.00008249 Ry

     total magnetization       =     0.90 Bohr mag/cell
     absolute magnetization    =     1.03 Bohr mag/cell

     iteration # 21     ecut=    60.00 Ry     beta= 0.70
     Davidson diagonalization with overlap
     c_bands:  1 eigenvalues not converged
     ethr =  4.58E-07,  avg # of iterations =  1.6

     total cpu time spent up to now is      155.7 secs

     total energy              =    -339.50759274 Ry
     estimated scf accuracy    <       0.00006376 Ry

     total magnetization       =     0.89 Bohr mag/cell
     absolute magnetization    =     1.02 Bohr mag/cell

     iteration # 22     ecut=    60.00 Ry     beta= 0.70
     Davidson diagonalization with overlap
     ethr =  3.54E-07,  avg # of iterations =  1.0

     total cpu time spent up to now is      156.8 secs

     total energy              =    -339.50759689 Ry
     estimated scf accuracy    <       0.00000574 Ry

     total magnetization       =     0.89 Bohr mag/cell
     absolute magnetization    =     1.02 Bohr mag/cell

     iteration # 23     ecut=    60.00 Ry     beta= 0.70
     Davidson diagonalization with overlap
     ethr =  3.19E-08,  avg # of iterations =  1.5

     total cpu time spent up to now is      158.1 secs

     total energy              =    -339.50759665 Ry
     estimated scf accuracy    <       0.00004313 Ry

     total magnetization       =     0.89 Bohr mag/cell
     absolute magnetization    =     1.01 Bohr mag/cell

     iteration # 24     ecut=    60.00 Ry     beta= 0.70
     Davidson diagonalization with overlap
     ethr =  3.19E-08,  avg # of iterations =  1.5

     total cpu time spent up to now is      159.4 secs

     total energy              =    -339.50759772 Ry
     estimated scf accuracy    <       0.00000874 Ry

     total magnetization       =     0.89 Bohr mag/cell
     absolute magnetization    =     1.01 Bohr mag/cell

     iteration # 25     ecut=    60.00 Ry     beta= 0.70
     Davidson diagonalization with overlap
     ethr =  3.19E-08,  avg # of iterations =  1.5

     total cpu time spent up to now is      160.7 secs

     total energy              =    -339.50759819 Ry
     estimated scf accuracy    <       0.00000662 Ry

     total magnetization       =     0.89 Bohr mag/cell
     absolute magnetization    =     1.01 Bohr mag/cell

     iteration # 26     ecut=    60.00 Ry     beta= 0.70
     Davidson diagonalization with overlap
     ethr =  3.19E-08,  avg # of iterations =  1.7

     total cpu time spent up to now is      161.9 secs

     total energy              =    -339.50759823 Ry
     estimated scf accuracy    <       0.00004196 Ry

     total magnetization       =     0.89 Bohr mag/cell
     absolute magnetization    =     1.01 Bohr mag/cell

     iteration # 27     ecut=    60.00 Ry     beta= 0.70
     Davidson diagonalization with overlap
     ethr =  3.19E-08,  avg # of iterations =  2.0

     total cpu time spent up to now is      163.3 secs

     total energy              =    -339.50759520 Ry
     estimated scf accuracy    <       0.00011232 Ry

     total magnetization       =     0.89 Bohr mag/cell
     absolute magnetization    =     1.01 Bohr mag/cell

     iteration # 28     ecut=    60.00 Ry     beta= 0.70
     Davidson diagonalization with overlap
     ethr =  3.19E-08,  avg # of iterations =  2.0

     total cpu time spent up to now is      164.6 secs

     total energy              =    -339.50759783 Ry
     estimated scf accuracy    <       0.00000019 Ry

     total magnetization       =     0.89 Bohr mag/cell
     absolute magnetization    =     1.01 Bohr mag/cell

     iteration # 29     ecut=    60.00 Ry     beta= 0.70
     Davidson diagonalization with overlap
     ethr =  1.08E-09,  avg # of iterations =  1.5

     total cpu time spent up to now is      165.9 secs

     total energy              =    -339.50759792 Ry
     estimated scf accuracy    <       0.00000477 Ry

     total magnetization       =     0.89 Bohr mag/cell
     absolute magnetization    =     1.01 Bohr mag/cell

     iteration # 30     ecut=    60.00 Ry     beta= 0.70
     Davidson diagonalization with overlap
     ethr =  1.08E-09,  avg # of iterations =  1.5

     total cpu time spent up to now is      167.3 secs

     total energy              =    -339.50759801 Ry
     estimated scf accuracy    <       0.00000020 Ry

     total magnetization       =     0.89 Bohr mag/cell
     absolute magnetization    =     1.01 Bohr mag/cell

     iteration # 31     ecut=    60.00 Ry     beta= 0.70
     Davidson diagonalization with overlap
     ethr =  1.08E-09,  avg # of iterations =  2.0

     total cpu time spent up to now is      168.6 secs

     total energy              =    -339.50759786 Ry
     estimated scf accuracy    <       0.00000586 Ry

     total magnetization       =     0.89 Bohr mag/cell
     absolute magnetization    =     1.01 Bohr mag/cell

     iteration # 32     ecut=    60.00 Ry     beta= 0.70
     Davidson diagonalization with overlap
     ethr =  1.08E-09,  avg # of iterations =  2.0

     total cpu time spent up to now is      170.0 secs

     total energy              =    -339.50759799 Ry
     estimated scf accuracy    <          2.6E-09 Ry

     total magnetization       =     0.89 Bohr mag/cell
     absolute magnetization    =     1.01 Bohr mag/cell

     iteration # 33     ecut=    60.00 Ry     beta= 0.70
     Davidson diagonalization with overlap
     ethr =  1.45E-11,  avg # of iterations =  2.0

     total cpu time spent up to now is      171.3 secs

     total energy              =    -339.50759800 Ry
     estimated scf accuracy    <       0.00000004 Ry

     total magnetization       =     0.89 Bohr mag/cell
     absolute magnetization    =     1.01 Bohr mag/cell

     iteration # 34     ecut=    60.00 Ry     beta= 0.70
     Davidson diagonalization with overlap
     ethr =  1.45E-11,  avg # of iterations =  1.5

     total cpu time spent up to now is      172.7 secs

     total energy              =    -339.50759800 Ry
     estimated scf accuracy    <       0.00000001 Ry

     total magnetization       =     0.89 Bohr mag/cell
     absolute magnetization    =     1.01 Bohr mag/cell

     iteration # 35     ecut=    60.00 Ry     beta= 0.70
     Davidson diagonalization with overlap
     ethr =  1.45E-11,  avg # of iterations =  1.5

     total cpu time spent up to now is      174.0 secs

     total energy              =    -339.50759800 Ry
     estimated scf accuracy    <          2.5E-09 Ry

     total magnetization       =     0.89 Bohr mag/cell
     absolute magnetization    =     1.01 Bohr mag/cell

     iteration # 36     ecut=    60.00 Ry     beta= 0.70
     Davidson diagonalization with overlap
     ethr =  1.38E-11,  avg # of iterations =  1.0

     total cpu time spent up to now is      175.0 secs

     total energy              =    -339.50759800 Ry
     estimated scf accuracy    <          4.2E-09 Ry

     total magnetization       =     0.89 Bohr mag/cell
     absolute magnetization    =     1.01 Bohr mag/cell

     iteration # 37     ecut=    60.00 Ry     beta= 0.70
     Davidson diagonalization with overlap
     ethr =  1.38E-11,  avg # of iterations =  2.0

     total cpu time spent up to now is      176.3 secs

     total energy              =    -339.50759800 Ry
     estimated scf accuracy    <       0.00000004 Ry

     total magnetization       =     0.89 Bohr mag/cell
     absolute magnetization    =     1.01 Bohr mag/cell

     iteration # 38     ecut=    60.00 Ry     beta= 0.70
     Davidson diagonalization with overlap
     ethr =  1.38E-11,  avg # of iterations =  2.0

     total cpu time spent up to now is      177.6 secs

     total energy              =    -339.50759800 Ry
     estimated scf accuracy    <          3.4E-09 Ry

     total magnetization       =     0.89 Bohr mag/cell
     absolute magnetization    =     1.01 Bohr mag/cell

     iteration # 39     ecut=    60.00 Ry     beta= 0.70
     Davidson diagonalization with overlap
     ethr =  1.38E-11,  avg # of iterations =  1.5

     total cpu time spent up to now is      179.0 secs

     total energy              =    -339.50759800 Ry
     estimated scf accuracy    <       0.00000002 Ry

     total magnetization       =     0.89 Bohr mag/cell
     absolute magnetization    =     1.01 Bohr mag/cell

     iteration # 40     ecut=    60.00 Ry     beta= 0.70
     Davidson diagonalization with overlap
     ethr =  1.38E-11,  avg # of iterations =  1.7

     total cpu time spent up to now is      180.2 secs

     total energy              =    -339.50759800 Ry
     estimated scf accuracy    <       0.00000003 Ry

     total magnetization       =     0.89 Bohr mag/cell
     absolute magnetization    =     1.01 Bohr mag/cell

     iteration # 41     ecut=    60.00 Ry     beta= 0.70
     Davidson diagonalization with overlap
     ethr =  1.38E-11,  avg # of iterations =  2.0

     total cpu time spent up to now is      181.5 secs

     total energy              =    -339.50759800 Ry
     estimated scf accuracy    <          1.5E-09 Ry

     total magnetization       =     0.89 Bohr mag/cell
     absolute magnetization    =     1.01 Bohr mag/cell

     iteration # 42     ecut=    60.00 Ry     beta= 0.70
     Davidson diagonalization with overlap
     ethr =  8.50E-12,  avg # of iterations =  1.0

     total cpu time spent up to now is      182.6 secs

     total energy              =    -339.50759800 Ry
     estimated scf accuracy    <          1.7E-09 Ry

     total magnetization       =     0.89 Bohr mag/cell
     absolute magnetization    =     1.01 Bohr mag/cell

     iteration # 43     ecut=    60.00 Ry     beta= 0.70
     Davidson diagonalization with overlap
     ethr =  8.50E-12,  avg # of iterations =  1.0

     total cpu time spent up to now is      183.7 secs

     total energy              =    -339.50759800 Ry
     estimated scf accuracy    <          1.0E-09 Ry

     total magnetization       =     0.89 Bohr mag/cell
     absolute magnetization    =     1.01 Bohr mag/cell

     iteration # 44     ecut=    60.00 Ry     beta= 0.70
     Davidson diagonalization with overlap
     ethr =  5.56E-12,  avg # of iterations =  1.0

     Magnetic moment per site  (integrated on atomic sphere of radius R)
     atom   1 (R=0.412)  charge= 16.0563  magn=  0.9430

     total cpu time spent up to now is      184.7 secs

     End of self-consistent calculation

     Number of k-points >= 100: set verbosity='high' to print the bands.

     the Fermi energy is     9.2907 ev

!    total energy              =    -339.50759800 Ry
     estimated scf accuracy    <          5.3E-10 Ry
     smearing contrib. (-TS)   =      -0.00028330 Ry
     internal energy E=F+TS    =    -339.50731469 Ry

     The total energy is F=E-TS. E is the sum of the following terms:
     one-electron contribution =    -271.24691087 Ry
     hartree contribution      =     141.48176252 Ry
     xc contribution           =     -34.22445184 Ry
     ewald contribution        =    -175.51771450 Ry

     total magnetization       =     0.89 Bohr mag/cell
     absolute magnetization    =     1.01 Bohr mag/cell

     convergence has been achieved in  44 iterations

     Forces acting on atoms (cartesian axes, Ry/au):

     atom    1 type  1   force =     0.00000000    0.00000000    0.00000000

     Total force =     0.000000     Total SCF correction =     0.000012


     Computing stress (Cartesian axis) and pressure

          total   stress  (Ry/bohr**3)                   (kbar)     P=     -106.45
  -0.00062633  -0.00022642  -0.00000002          -92.14      -33.31       -0.00
  -0.00022642  -0.00070936   0.00000002          -33.31     -104.35        0.00
  -0.00000002   0.00000002  -0.00083529           -0.00        0.00     -122.88

     Energy error            =      4.7E-03 Ry
     Gradient error          =      0.0E+00 Ry/Bohr
     Cell gradient error     =      1.2E+02 kbar

     number of scf cycles    =   4
     number of bfgs steps    =   3

     enthalpy           old  =    -339.5028796577 Ry
     enthalpy           new  =    -339.5075979970 Ry

     CASE: enthalpy          _new < enthalpy          _old

     new trust radius        =       0.1240150810 bohr
     new conv_thr            =       0.0000000010 Ry

     new unit-cell volume =    112.74258 a.u.^3 (    16.70673 Ang^3 )
     density =      5.83374 g/cm^3

CELL_PARAMETERS (bohr)
   4.411790590  -0.400649397   0.000030800
  -1.189661043   4.267213572  -0.000057490
   0.000049301  -0.000086232   6.144205385

ATOMIC_POSITIONS (crystal)
Ni            0.0000000000        0.0000000000        0.0000000000



     Writing config-only to output data dir ./out/pwscf.save/
     NEW-OLD atomic charge density approx. for the potential

     Check: negative core charge=   -0.000001
     extrapolated charge   17.05113, renormalised to   18.00000
     Generating pointlists ...

     total cpu time spent up to now is      185.4 secs

     Self-consistent Calculation

     iteration #  1     ecut=    60.00 Ry     beta= 0.70
     Davidson diagonalization with overlap
     ethr =  1.00E-06,  avg # of iterations =  9.5

     total cpu time spent up to now is      189.5 secs

     total energy              =    -335.83817480 Ry
     estimated scf accuracy    <       4.53497993 Ry

     total magnetization       =    -0.00 Bohr mag/cell
     absolute magnetization    =     0.10 Bohr mag/cell

     iteration #  2     ecut=    60.00 Ry     beta= 0.70
     Davidson diagonalization with overlap
     ethr =  1.00E-02,  avg # of iterations =  3.7

     total cpu time spent up to now is      191.4 secs

     total energy              =    -338.88436278 Ry
     estimated scf accuracy    <      21.29648929 Ry

     total magnetization       =     0.14 Bohr mag/cell
     absolute magnetization    =     0.18 Bohr mag/cell

     iteration #  3     ecut=    60.00 Ry     beta= 0.70
     Davidson diagonalization with overlap
     ethr =  1.00E-02,  avg # of iterations =  3.0

     total cpu time spent up to now is      193.0 secs

     total energy              =    -339.46459089 Ry
     estimated scf accuracy    <       3.33556540 Ry

     total magnetization       =     0.40 Bohr mag/cell
     absolute magnetization    =     0.49 Bohr mag/cell

     iteration #  4     ecut=    60.00 Ry     beta= 0.70
     Davidson diagonalization with overlap
     ethr =  1.00E-02,  avg # of iterations =  2.0

     total cpu time spent up to now is      194.2 secs

     total energy              =    -339.51364155 Ry
     estimated scf accuracy    <       3.40211871 Ry

     total magnetization       =     0.69 Bohr mag/cell
     absolute magnetization    =     2.67 Bohr mag/cell

     iteration #  5     ecut=    60.00 Ry     beta= 0.70
     Davidson diagonalization with overlap
     ethr =  1.00E-02,  avg # of iterations =  1.0

     total cpu time spent up to now is      195.3 secs

     total energy              =    -339.55249269 Ry
     estimated scf accuracy    <       0.52391196 Ry

     total magnetization       =     0.69 Bohr mag/cell
     absolute magnetization    =     0.79 Bohr mag/cell

     iteration #  6     ecut=    60.00 Ry     beta= 0.70
     Davidson diagonalization with overlap
     ethr =  2.91E-03,  avg # of iterations =  1.0

     total cpu time spent up to now is      196.4 secs

     total energy              =    -339.55281132 Ry
     estimated scf accuracy    <       0.55931193 Ry

     total magnetization       =     0.80 Bohr mag/cell
     absolute magnetization    =     1.19 Bohr mag/cell

     iteration #  7     ecut=    60.00 Ry     beta= 0.70
     Davidson diagonalization with overlap
     ethr =  2.91E-03,  avg # of iterations =  1.0

     total cpu time spent up to now is      197.5 secs

     total energy              =    -339.55701589 Ry
     estimated scf accuracy    <       0.36511750 Ry

     total magnetization       =     0.80 Bohr mag/cell
     absolute magnetization    =     0.89 Bohr mag/cell

     iteration #  8     ecut=    60.00 Ry     beta= 0.70
     Davidson diagonalization with overlap
     ethr =  2.03E-03,  avg # of iterations =  1.0

     total cpu time spent up to now is      198.5 secs

     total energy              =    -339.54463212 Ry
     estimated scf accuracy    <       0.31620299 Ry

     total magnetization       =     0.81 Bohr mag/cell
     absolute magnetization    =     0.86 Bohr mag/cell

     iteration #  9     ecut=    60.00 Ry     beta= 0.70
     Davidson diagonalization with overlap
     ethr =  1.76E-03,  avg # of iterations =  1.0

     total cpu time spent up to now is      199.6 secs

     total energy              =    -339.54194704 Ry
     estimated scf accuracy    <       0.21756419 Ry

     total magnetization       =     0.85 Bohr mag/cell
     absolute magnetization    =     0.92 Bohr mag/cell

     iteration # 10     ecut=    60.00 Ry     beta= 0.70
     Davidson diagonalization with overlap
     ethr =  1.21E-03,  avg # of iterations =  1.0

     total cpu time spent up to now is      200.7 secs

     total energy              =    -339.48893525 Ry
     estimated scf accuracy    <       0.21188630 Ry

[...]

     iteration # 66     ecut=    60.00 Ry     beta= 0.70
     Davidson diagonalization with overlap
     ethr =  8.47E-07,  avg # of iterations =  1.5

     total cpu time spent up to now is      367.2 secs

     total energy              =    -339.52499109 Ry
     estimated scf accuracy    <       0.00035556 Ry

     total magnetization       =     0.30 Bohr mag/cell
     absolute magnetization    =     0.35 Bohr mag/cell

     iteration # 67     ecut=    60.00 Ry     beta= 0.70
     Davidson diagonalization with overlap
     ethr =  8.47E-07,  avg # of iterations =  1.0

     total cpu time spent up to now is      368.3 secs

     total energy              =    -339.52498203 Ry
     estimated scf accuracy    <       0.00061812 Ry

     total magnetization       =     0.33 Bohr mag/cell
     absolute magnetization    =     0.37 Bohr mag/cell

     iteration # 68     ecut=    60.00 Ry     beta= 0.70
     Davidson diagonalization with overlap
     ethr =  8.47E-07,  avg # of iterations =  1.5

     total cpu time spent up to now is      369.6 secs

     total energy              =    -339.52327215 Ry
     estimated scf accuracy    <       0.00005143 Ry

     total magnetization       =     0.33 Bohr mag/cell
     absolute magnetization    =     0.38 Bohr mag/cell

     iteration # 69     ecut=    60.00 Ry     beta= 0.70
     Davidson diagonalization with overlap
     ethr =  2.86E-07,  avg # of iterations =  3.1

     total cpu time spent up to now is      371.4 secs

     total energy              =    -339.52481417 Ry
     estimated scf accuracy    <       0.00096499 Ry

     total magnetization       =     0.69 Bohr mag/cell
     absolute magnetization    =     0.76 Bohr mag/cell

     iteration # 70     ecut=    60.00 Ry     beta= 0.70
     Davidson diagonalization with overlap
     ethr =  2.86E-07,  avg # of iterations =  2.4

     total cpu time spent up to now is      373.0 secs

     total energy              =    -339.52281045 Ry
     estimated scf accuracy    <       0.00047025 Ry

     total magnetization       =     0.53 Bohr mag/cell
     absolute magnetization    =     0.59 Bohr mag/cell

     iteration # 71     ecut=    60.00 Ry     beta= 0.70
     Davidson diagonalization with overlap
     ethr =  2.86E-07,  avg # of iterations =  3.1

     total cpu time spent up to now is      374.8 secs

     total energy              =    -339.52464447 Ry
     estimated scf accuracy    <       0.00013615 Ry

     total magnetization       =     0.24 Bohr mag/cell
     absolute magnetization    =     0.28 Bohr mag/cell

     iteration # 72     ecut=    60.00 Ry     beta= 0.70
     Davidson diagonalization with overlap
     ethr =  2.86E-07,  avg # of iterations =  2.1

     total cpu time spent up to now is      376.2 secs

     total energy              =    -339.52481234 Ry
     estimated scf accuracy    <       0.00037181 Ry

     total magnetization       =     0.20 Bohr mag/cell
     absolute magnetization    =     0.22 Bohr mag/cell

     iteration # 73     ecut=    60.00 Ry     beta= 0.70
     Davidson diagonalization with overlap
     ethr =  2.86E-07,  avg # of iterations =  2.0

     total cpu time spent up to now is      377.6 secs

     total energy              =    -339.52487852 Ry
     estimated scf accuracy    <       0.00051291 Ry

     total magnetization       =     0.24 Bohr mag/cell
     absolute magnetization    =     0.27 Bohr mag/cell

     iteration # 74     ecut=    60.00 Ry     beta= 0.70
     Davidson diagonalization with overlap
     ethr =  2.86E-07,  avg # of iterations =  2.0

     total cpu time spent up to now is      378.9 secs

     total energy              =    -339.52495865 Ry
     estimated scf accuracy    <       0.00019760 Ry

     total magnetization       =     0.28 Bohr mag/cell
     absolute magnetization    =     0.32 Bohr mag/cell

     iteration # 75     ecut=    60.00 Ry     beta= 0.70
     Davidson diagonalization with overlap
     ethr =  2.86E-07,  avg # of iterations =  1.9

     total cpu time spent up to now is      380.1 secs

     total energy              =    -339.52495231 Ry
     estimated scf accuracy    <       0.00019321 Ry

     total magnetization       =     0.31 Bohr mag/cell
     absolute magnetization    =     0.36 Bohr mag/cell

     iteration # 76     ecut=    60.00 Ry     beta= 0.70
     Davidson diagonalization with overlap
     ethr =  2.86E-07,  avg # of iterations =  1.0

     total cpu time spent up to now is      381.2 secs

     total energy              =    -339.52498680 Ry
     estimated scf accuracy    <       0.00006212 Ry

     total magnetization       =     0.29 Bohr mag/cell
     absolute magnetization    =     0.34 Bohr mag/cell

     iteration # 77     ecut=    60.00 Ry     beta= 0.70
     Davidson diagonalization with overlap
     ethr =  2.86E-07,  avg # of iterations =  1.0

     total cpu time spent up to now is      382.3 secs

     total energy              =    -339.52494861 Ry
     estimated scf accuracy    <       0.00004149 Ry

     total magnetization       =     0.31 Bohr mag/cell
     absolute magnetization    =     0.36 Bohr mag/cell

     iteration # 78     ecut=    60.00 Ry     beta= 0.70
     Davidson diagonalization with overlap
     ethr =  2.31E-07,  avg # of iterations =  2.0

     total cpu time spent up to now is      383.7 secs

     total energy              =    -339.52499466 Ry
     estimated scf accuracy    <       0.00017438 Ry

     total magnetization       =     0.39 Bohr mag/cell
     absolute magnetization    =     0.45 Bohr mag/cell

     iteration # 79     ecut=    60.00 Ry     beta= 0.70
     Davidson diagonalization with overlap
     ethr =  2.31E-07,  avg # of iterations =  2.0

     total cpu time spent up to now is      385.0 secs

     total energy              =    -339.52501474 Ry
     estimated scf accuracy    <       0.00025445 Ry

     total magnetization       =     0.35 Bohr mag/cell
     absolute magnetization    =     0.40 Bohr mag/cell

     iteration # 80     ecut=    60.00 Ry     beta= 0.70
     Davidson diagonalization with overlap
     ethr =  2.31E-07,  avg # of iterations =  1.9

     total cpu time spent up to now is      386.2 secs

     total energy              =    -339.52502814 Ry
     estimated scf accuracy    <       0.00014459 Ry

     total magnetization       =     0.34 Bohr mag/cell
     absolute magnetization    =     0.39 Bohr mag/cell

     iteration # 81     ecut=    60.00 Ry     beta= 0.70
     Davidson diagonalization with overlap
     ethr =  2.31E-07,  avg # of iterations =  1.7

     total cpu time spent up to now is      387.5 secs

     total energy              =    -339.52368542 Ry
     estimated scf accuracy    <       0.00064861 Ry

     total magnetization       =     0.33 Bohr mag/cell
     absolute magnetization    =     0.38 Bohr mag/cell

     iteration # 82     ecut=    60.00 Ry     beta= 0.70
     Davidson diagonalization with overlap
     ethr =  2.31E-07,  avg # of iterations =  3.2

     total cpu time spent up to now is      389.4 secs

     total energy              =    -339.52464921 Ry
     estimated scf accuracy    <       0.00122298 Ry

     total magnetization       =     0.66 Bohr mag/cell
     absolute magnetization    =     0.72 Bohr mag/cell

     iteration # 83     ecut=    60.00 Ry     beta= 0.70
     Davidson diagonalization with overlap
     ethr =  2.31E-07,  avg # of iterations =  2.8

     total cpu time spent up to now is      391.0 secs

     total energy              =    -339.52487052 Ry
     estimated scf accuracy    <       0.00051141 Ry

     total magnetization       =     0.49 Bohr mag/cell
     absolute magnetization    =     0.55 Bohr mag/cell

     iteration # 84     ecut=    60.00 Ry     beta= 0.70
     Davidson diagonalization with overlap
     ethr =  2.31E-07,  avg # of iterations =  2.0

     total cpu time spent up to now is      392.4 secs

     total energy              =    -339.52314050 Ry
     estimated scf accuracy    <       0.00061688 Ry

     total magnetization       =     0.38 Bohr mag/cell
     absolute magnetization    =     0.44 Bohr mag/cell

     iteration # 85     ecut=    60.00 Ry     beta= 0.70
     Davidson diagonalization with overlap
     ethr =  2.31E-07,  avg # of iterations =  3.3

     total cpu time spent up to now is      394.2 secs

     total energy              =    -339.52435553 Ry
     estimated scf accuracy    <       0.00040470 Ry

     total magnetization       =     0.18 Bohr mag/cell
     absolute magnetization    =     0.20 Bohr mag/cell

     iteration # 86     ecut=    60.00 Ry     beta= 0.70
     Davidson diagonalization with overlap
     ethr =  2.31E-07,  avg # of iterations =  3.0

     total cpu time spent up to now is      395.9 secs

     total energy              =    -339.52447586 Ry
     estimated scf accuracy    <       0.00009326 Ry

     total magnetization       =     0.32 Bohr mag/cell
     absolute magnetization    =     0.36 Bohr mag/cell

     iteration # 87     ecut=    60.00 Ry     beta= 0.70
     Davidson diagonalization with overlap
     ethr =  2.31E-07,  avg # of iterations =  3.0

     total cpu time spent up to now is      397.6 secs

     total energy              =    -339.52536678 Ry
     estimated scf accuracy    <       0.00042248 Ry

     total magnetization       =     0.52 Bohr mag/cell
     absolute magnetization    =     0.58 Bohr mag/cell

     iteration # 88     ecut=    60.00 Ry     beta= 0.70
     Davidson diagonalization with overlap
     ethr =  2.31E-07,  avg # of iterations =  1.5

     total cpu time spent up to now is      398.9 secs

     total energy              =    -339.52508897 Ry
     estimated scf accuracy    <       0.00033093 Ry

     total magnetization       =     0.54 Bohr mag/cell
     absolute magnetization    =     0.60 Bohr mag/cell

     iteration # 89     ecut=    60.00 Ry     beta= 0.70
     Davidson diagonalization with overlap
     ethr =  2.31E-07,  avg # of iterations =  2.0

     total cpu time spent up to now is      400.2 secs

     total energy              =    -339.52519268 Ry
     estimated scf accuracy    <       0.00094422 Ry

     total magnetization       =     0.46 Bohr mag/cell
     absolute magnetization    =     0.52 Bohr mag/cell

     iteration # 90     ecut=    60.00 Ry     beta= 0.70
     Davidson diagonalization with overlap
     ethr =  2.31E-07,  avg # of iterations =  2.0

     total cpu time spent up to now is      401.6 secs

     total energy              =    -339.52516821 Ry
     estimated scf accuracy    <       0.00017609 Ry

     total magnetization       =     0.47 Bohr mag/cell
     absolute magnetization    =     0.53 Bohr mag/cell

     iteration # 91     ecut=    60.00 Ry     beta= 0.70
     Davidson diagonalization with overlap
     ethr =  2.31E-07,  avg # of iterations =  2.7

     total cpu time spent up to now is      403.1 secs

     total energy              =    -339.52510207 Ry
     estimated scf accuracy    <       0.00296091 Ry

     total magnetization       =     0.63 Bohr mag/cell
     absolute magnetization    =     0.70 Bohr mag/cell

     iteration # 92     ecut=    60.00 Ry     beta= 0.70
     Davidson diagonalization with overlap
     ethr =  2.31E-07,  avg # of iterations =  2.0

     total cpu time spent up to now is      404.5 secs

     total energy              =    -339.52525853 Ry
     estimated scf accuracy    <       0.00036131 Ry

     total magnetization       =     0.54 Bohr mag/cell
     absolute magnetization    =     0.60 Bohr mag/cell

     iteration # 93     ecut=    60.00 Ry     beta= 0.70
     Davidson diagonalization with overlap
     ethr =  2.31E-07,  avg # of iterations =  1.3

     total cpu time spent up to now is      405.6 secs

     total energy              =    -339.52540299 Ry
     estimated scf accuracy    <       0.00023773 Ry

     total magnetization       =     0.51 Bohr mag/cell
     absolute magnetization    =     0.57 Bohr mag/cell

     iteration # 94     ecut=    60.00 Ry     beta= 0.70
     Davidson diagonalization with overlap
     ethr =  2.31E-07,  avg # of iterations =  2.0

     total cpu time spent up to now is      407.0 secs

     total energy              =    -339.51965148 Ry
     estimated scf accuracy    <       0.00078563 Ry

     total magnetization       =     0.61 Bohr mag/cell
     absolute magnetization    =     0.68 Bohr mag/cell

     iteration # 95     ecut=    60.00 Ry     beta= 0.70
     Davidson diagonalization with overlap
     ethr =  2.31E-07,  avg # of iterations =  4.0

     total cpu time spent up to now is      409.1 secs

     total energy              =    -339.51985319 Ry
     estimated scf accuracy    <       0.00033885 Ry

     total magnetization       =     0.20 Bohr mag/cell
     absolute magnetization    =     0.22 Bohr mag/cell

     iteration # 96     ecut=    60.00 Ry     beta= 0.70
     Davidson diagonalization with overlap
     ethr =  2.31E-07,  avg # of iterations =  4.1

     total cpu time spent up to now is      411.4 secs

     total energy              =    -339.52455730 Ry
     estimated scf accuracy    <       0.00143000 Ry

     total magnetization       =     0.71 Bohr mag/cell
     absolute magnetization    =     0.78 Bohr mag/cell

     iteration # 97     ecut=    60.00 Ry     beta= 0.70
     Davidson diagonalization with overlap
     ethr =  2.31E-07,  avg # of iterations =  3.0

     total cpu time spent up to now is      413.0 secs

     total energy              =    -339.52305752 Ry
     estimated scf accuracy    <       0.00141588 Ry

     total magnetization       =     0.53 Bohr mag/cell
     absolute magnetization    =     0.59 Bohr mag/cell

     iteration # 98     ecut=    60.00 Ry     beta= 0.70
     Davidson diagonalization with overlap
     ethr =  2.31E-07,  avg # of iterations =  3.2

     total cpu time spent up to now is      414.9 secs

     total energy              =    -339.52484592 Ry
     estimated scf accuracy    <       0.00179400 Ry

     total magnetization       =     0.25 Bohr mag/cell
     absolute magnetization    =     0.30 Bohr mag/cell

     iteration # 99     ecut=    60.00 Ry     beta= 0.70
     Davidson diagonalization with overlap
     ethr =  2.31E-07,  avg # of iterations =  2.5

     total cpu time spent up to now is      416.4 secs

     total energy              =    -339.52425522 Ry
     estimated scf accuracy    <       0.00268308 Ry

     total magnetization       =     0.30 Bohr mag/cell
     absolute magnetization    =     0.36 Bohr mag/cell

     iteration #100     ecut=    60.00 Ry     beta= 0.70
     Davidson diagonalization with overlap
     ethr =  2.31E-07,  avg # of iterations =  3.0

     total cpu time spent up to now is      418.2 secs

     total energy              =    -339.52482372 Ry
     estimated scf accuracy    <       0.00482518 Ry

     total magnetization       =     0.54 Bohr mag/cell
     absolute magnetization    =     0.61 Bohr mag/cell

     End of self-consistent calculation

     convergence NOT achieved after 100 iterations: stopping

     Writing config to output data dir ./out/pwscf.save/

     init_run     :      0.47s CPU      0.60s WALL (       1 calls)
     electrons    :    347.87s CPU    413.29s WALL (       7 calls)
     update_pot   :      0.53s CPU      0.56s WALL (       6 calls)
     forces       :      0.74s CPU      0.86s WALL (       6 calls)
     stress       :      1.88s CPU      2.12s WALL (       6 calls)

     Called by init_run:
     wfcinit      :      0.33s CPU      0.40s WALL (       1 calls)
     potinit      :      0.03s CPU      0.05s WALL (       1 calls)
     hinit0       :      0.10s CPU      0.13s WALL (       1 calls)

     Called by electrons:
     c_bands      :    297.65s CPU    353.81s WALL (     313 calls)
     sum_band     :     46.31s CPU     55.20s WALL (     313 calls)
     v_of_rho     :      2.31s CPU      2.41s WALL (     320 calls)
     newd         :      1.23s CPU      1.56s WALL (     320 calls)
     mix_rho      :      0.26s CPU      0.41s WALL (     313 calls)

     Called by c_bands:
     init_us_2    :      4.24s CPU      5.08s WALL (  194256 calls)
     init_us_2:cp :      4.01s CPU      4.84s WALL (  194256 calls)
     cegterg      :    285.88s CPU    337.46s WALL (   95152 calls)

     Called by *egterg:
     cdiaghg      :     36.57s CPU     42.59s WALL (  269412 calls)
     h_psi        :    190.47s CPU    225.85s WALL (  271540 calls)
     s_psi        :      9.47s CPU     11.06s WALL (  271540 calls)
     g_psi        :      0.58s CPU      0.69s WALL (  176084 calls)

     Called by h_psi:
     h_psi:calbec :     11.36s CPU     13.46s WALL (  271540 calls)
     vloc_psi     :    170.39s CPU    202.12s WALL (  271540 calls)
     add_vuspsi   :      7.53s CPU      8.90s WALL (  271540 calls)

     General routines
     calbec       :     15.93s CPU     18.98s WALL (  375812 calls)
     fft          :      0.86s CPU      0.99s WALL (    8232 calls)
     ffts         :      0.05s CPU      0.06s WALL (    1266 calls)
     fftw         :    193.25s CPU    229.58s WALL ( 7048750 calls)
     interpolate  :      0.09s CPU      0.10s WALL (     640 calls)
     davcio       :      0.00s CPU      0.03s WALL (     322 calls)

     Parallel routines

     PWSCF        :   5m51.96s CPU   6m58.24s WALL


   This run was terminated on:  15:27:13  18Jun2023            

=------------------------------------------------------------------------------=
   JOB DONE.
=------------------------------------------------------------------------------=
Note: The following floating-point exceptions are signalling: IEEE_DENORMAL
STOP 255
Note: The following floating-point exceptions are signalling: IEEE_INVALID_FLAG IEEE_DENORMAL
STOP 255
Note: The following floating-point exceptions are signalling: IEEE_DENORMAL
STOP 255
Note: The following floating-point exceptions are signalling: IEEE_DENORMAL
STOP 255
Note: The following floating-point exceptions are signalling: IEEE_DENORMAL
STOP 255
Note: The following floating-point exceptions are signalling: IEEE_DENORMAL
STOP 255
STOP 255
Note: The following floating-point exceptions are signalling: IEEE_DENORMAL
STOP 255
Note: The following floating-point exceptions are signalling: IEEE_DENORMAL
STOP 255
Note: The following floating-point exceptions are signalling: IEEE_DENORMAL
STOP 255
STOP 255
Note: The following floating-point exceptions are signalling: IEEE_DENORMAL
STOP 255
Note: The following floating-point exceptions are signalling: IEEE_DENORMAL
STOP 255
Note: The following floating-point exceptions are signalling: IEEE_DENORMAL
STOP 255
Note: The following floating-point exceptions are signalling: IEEE_DENORMAL
STOP 255
STOP 255
Note: The following floating-point exceptions are signalling: IEEE_DENORMAL
STOP 255
Note: The following floating-point exceptions are signalling: IEEE_DENORMAL
STOP 255
Note: The following floating-point exceptions are signalling: IEEE_DENORMAL
STOP 255
Note: The following floating-point exceptions are signalling: IEEE_DENORMAL
STOP 255
Note: The following floating-point exceptions are signalling: IEEE_DENORMAL
STOP 255
STOP 255
Note: The following floating-point exceptions are signalling: IEEE_DENORMAL
STOP 255
Note: The following floating-point exceptions are signalling: IEEE_DENORMAL
STOP 255
--------------------------------------------------------------------------
Primary job  terminated normally, but 1 process returned
a non-zero exit code. Per user-direction, the job has been aborted.
--------------------------------------------------------------------------
--------------------------------------------------------------------------
mpirun detected that one or more processes exited with non-zero status, thus causing
the job to be terminated. The first process to do so was:

  Process name: [[21044,1],20]
  Exit code:    255
--------------------------------------------------------------------------
