Ignoring PCI device with non-16bit domain.
Pass --enable-32bits-pci-domain to configure to support such devices
(warning: it would break the library ABI, don't enable unless really needed).

     Program PWSCF v.7.1 starts on 18Jun2023 at 11:38:32 

     This program is part of the open-source Quantum ESPRESSO suite
     for quantum simulation of materials; please cite
         "P. Giannozzi et al., J. Phys.:Condens. Matter 21 395502 (2009);
         "P. Giannozzi et al., J. Phys.:Condens. Matter 29 465901 (2017);
         "P. Giannozzi et al., J. Chem. Phys. 152 154105 (2020);
          URL http://www.quantum-espresso.org", 
     in publications or presentations arising from this work. More details at
     http://www.quantum-espresso.org/quote

     Parallel version (MPI), running on    24 processors

     MPI processes distributed on     1 nodes
     9636 MiB available memory on the printing compute node when the environment starts

     Reading input from Ni_cubic_sc_atoms.in
Warning: card &CELL ignored
Warning: card   CELL_DOFREE  =  "ALL", ignored
Warning: card   CELL_DYNAMICS  =  "BFGS", ignored
Warning: card / ignored

     Current dimensions of program PWSCF are:
     Max number of different atomic species (ntypx) = 10
     Max number of k-points (npk) =  40000
     Max angular momentum in pseudopotentials (lmaxx) =  4

     K-points division:     npool     =       4
     R & G space division:  proc/nbgrp/npool/nimage =       6
     Subspace diagonalization in iterative solution of the eigenvalue problem:
     a serial algorithm will be used


     Parallelization info
     --------------------
     sticks:   dense  smooth     PW     G-vecs:    dense   smooth      PW
     Min          15      15      6                  115      115      28
     Max          17      17      7                  116      116      31
     Sum          97      97     37                  691      691     179

     Using Slab Decomposition



     bravais-lattice index     =            0
     lattice parameter (alat)  =       1.9048  a.u.
     unit-cell volume          =       6.9116 (a.u.)^3
     number of atoms/cell      =            1
     number of atomic types    =            1
     number of electrons       =        18.00
     number of Kohn-Sham states=           13
     kinetic-energy cutoff     =      80.0000  Ry
     charge density cutoff     =     320.0000  Ry
     scf convergence threshold =      1.0E-09
     mixing beta               =       0.7000
     number of iterations used =            8  TF        mixing
     Exchange-correlation= PBE
                           (   1   4   3   4   0   0   0)

     celldm(1)=   1.904844  celldm(2)=   0.000000  celldm(3)=   0.000000
     celldm(4)=   0.000000  celldm(5)=   0.000000  celldm(6)=   0.000000

     crystal axes: (cart. coord. in units of alat)
               a(1) = (   1.000000   0.000000   0.000000 )  
               a(2) = (   0.000000   1.000000   0.000000 )  
               a(3) = (   0.000000   0.000000   1.000000 )  

     reciprocal axes: (cart. coord. in units 2 pi/alat)
               b(1) = (  1.000000  0.000000  0.000000 )  
               b(2) = (  0.000000  1.000000  0.000000 )  
               b(3) = (  0.000000  0.000000  1.000000 )  


     PseudoPot. # 1 for Ni read from file:
     /home/jmgoff/work/automation/qe_pseudos/Ni.upf
     MD5 check sum: 2b0a79d100e227970886d6963e34175b
     Pseudo is Norm-conserving + core correction, Zval = 18.0
     Generated using ONCVPSP code by D. R. Hamann
     Using radial grid of 1372 points,  6 beta functions with: 
                l(1) =   0
                l(2) =   0
                l(3) =   1
                l(4) =   1
                l(5) =   2
                l(6) =   2

     atomic species   valence    mass     pseudopotential
        Ni            18.00    58.69340     Ni( 1.00)

     Starting magnetic structure 
     atomic species   magnetization
        Ni           0.700

     No symmetry found



   Cartesian axes

     site n.     atom                  positions (alat units)
         1           Ni  tau(   1) = (   0.0000000   0.0000000   0.0000000  )

     number of k points=  1099  Marzari-Vanderbilt smearing, width (Ry)=  0.0100

     Number of k-points >= 100: set verbosity='high' to print them.

     Dense  grid:      691 G-vectors     FFT dimensions: (  12,  12,  12)

     Estimated max dynamical RAM per process >       3.13 MB

     Estimated total dynamical RAM >      74.09 MB
     Generating pointlists ...
     new r_m :   0.4125 (alat units)  0.7857 (a.u.) for type    1

     Initial potential from superposition of free atoms

     starting charge      17.9998, renormalised to      18.0000
     Starting wfcs are   10 randomized atomic wfcs +    3 random wfcs

     total cpu time spent up to now is        0.4 secs

     Self-consistent Calculation

     iteration #  1     ecut=    80.00 Ry     beta= 0.70
     Davidson diagonalization with overlap
     ethr =  1.00E-02,  avg # of iterations =  4.7

     total cpu time spent up to now is        2.2 secs

     total energy              =    -309.88380515 Ry
     estimated scf accuracy    <       9.35106902 Ry

     total magnetization       =     0.61 Bohr mag/cell
     absolute magnetization    =     0.61 Bohr mag/cell

     iteration #  2     ecut=    80.00 Ry     beta= 0.70
     Davidson diagonalization with overlap
     ethr =  1.00E-02,  avg # of iterations =  1.0

     total cpu time spent up to now is        2.9 secs

     total energy              =    -310.23741404 Ry
     estimated scf accuracy    <       1.01157341 Ry

     total magnetization       =     0.33 Bohr mag/cell
     absolute magnetization    =     0.33 Bohr mag/cell

     iteration #  3     ecut=    80.00 Ry     beta= 0.70
     Davidson diagonalization with overlap
     ethr =  5.62E-03,  avg # of iterations =  1.0

     total cpu time spent up to now is        3.7 secs

     total energy              =    -310.29646632 Ry
     estimated scf accuracy    <       0.00505923 Ry

     total magnetization       =     0.07 Bohr mag/cell
     absolute magnetization    =     0.07 Bohr mag/cell

     iteration #  4     ecut=    80.00 Ry     beta= 0.70
     Davidson diagonalization with overlap
     ethr =  2.81E-05,  avg # of iterations =  1.4

     total cpu time spent up to now is        4.6 secs

     total energy              =    -310.29701408 Ry
     estimated scf accuracy    <       0.00113469 Ry

     total magnetization       =     0.05 Bohr mag/cell
     absolute magnetization    =     0.05 Bohr mag/cell

     iteration #  5     ecut=    80.00 Ry     beta= 0.70
     Davidson diagonalization with overlap
     ethr =  6.30E-06,  avg # of iterations =  1.6

     total cpu time spent up to now is        5.6 secs

     total energy              =    -310.29735204 Ry
     estimated scf accuracy    <       0.00007796 Ry

     total magnetization       =     0.01 Bohr mag/cell
     absolute magnetization    =     0.01 Bohr mag/cell

     iteration #  6     ecut=    80.00 Ry     beta= 0.70
     Davidson diagonalization with overlap
     ethr =  4.33E-07,  avg # of iterations =  1.1

     total cpu time spent up to now is        6.4 secs

     total energy              =    -310.29734976 Ry
     estimated scf accuracy    <       0.00003094 Ry

     total magnetization       =     0.01 Bohr mag/cell
     absolute magnetization    =     0.01 Bohr mag/cell

     iteration #  7     ecut=    80.00 Ry     beta= 0.70
     Davidson diagonalization with overlap
     ethr =  1.72E-07,  avg # of iterations =  1.1

     total cpu time spent up to now is        7.2 secs

     total energy              =    -310.29735497 Ry
     estimated scf accuracy    <       0.00000097 Ry

     total magnetization       =     0.00 Bohr mag/cell
     absolute magnetization    =     0.00 Bohr mag/cell

     iteration #  8     ecut=    80.00 Ry     beta= 0.70
     Davidson diagonalization with overlap
     ethr =  5.38E-09,  avg # of iterations =  1.5

     total cpu time spent up to now is        8.2 secs

     total energy              =    -310.29735529 Ry
     estimated scf accuracy    <       0.00000002 Ry

     total magnetization       =     0.00 Bohr mag/cell
     absolute magnetization    =     0.00 Bohr mag/cell

     iteration #  9     ecut=    80.00 Ry     beta= 0.70
     Davidson diagonalization with overlap
     ethr =  1.34E-10,  avg # of iterations =  1.3

     total cpu time spent up to now is        9.1 secs

     total energy              =    -310.29735530 Ry
     estimated scf accuracy    <          2.2E-09 Ry

     total magnetization       =    -0.00 Bohr mag/cell
     absolute magnetization    =     0.00 Bohr mag/cell

     iteration # 10     ecut=    80.00 Ry     beta= 0.70
     Davidson diagonalization with overlap
     ethr =  1.22E-11,  avg # of iterations =  1.2

     Magnetic moment per site  (integrated on atomic sphere of radius R)
     atom   1 (R=0.413)  charge= 11.5318  magn=  0.0000

     total cpu time spent up to now is        9.9 secs

     End of self-consistent calculation

     Number of k-points >= 100: set verbosity='high' to print the bands.

     the Fermi energy is   217.0722 ev

!    total energy              =    -310.29735530 Ry
     estimated scf accuracy    <          2.6E-10 Ry
     smearing contrib. (-TS)   =      -0.00004683 Ry
     internal energy E=F+TS    =    -310.29730848 Ry

     The total energy is F=E-TS. E is the sum of the following terms:
     one-electron contribution =     210.00517535 Ry
     hartree contribution      =      15.70916861 Ry
     xc contribution           =     -53.40809957 Ry
     ewald contribution        =    -482.60355287 Ry

     total magnetization       =     0.00 Bohr mag/cell
     absolute magnetization    =     0.00 Bohr mag/cell

     convergence has been achieved in  10 iterations

     Forces acting on atoms (cartesian axes, Ry/au):

     atom    1 type  1   force =     0.00000000    0.00000000    0.00000000

     Total force =     0.000000     Total SCF correction =     0.000000


     Computing stress (Cartesian axis) and pressure

          total   stress  (Ry/bohr**3)                   (kbar)     P=   892458.28
   6.06680812  -0.00000000  -0.00000000       892458.28       -0.00       -0.00
  -0.00000000   6.06680812   0.00000000           -0.00   892458.28        0.00
  -0.00000000   0.00000000   6.06680812           -0.00        0.00   892458.28


     Writing all to output data dir ./out/pwscf.save/

     init_run     :      0.19s CPU      0.30s WALL (       1 calls)
     electrons    :      6.42s CPU      9.56s WALL (       1 calls)
     forces       :      0.04s CPU      0.08s WALL (       1 calls)
     stress       :      0.07s CPU      0.10s WALL (       1 calls)

     Called by init_run:
     wfcinit      :      0.18s CPU      0.28s WALL (       1 calls)
     potinit      :      0.00s CPU      0.00s WALL (       1 calls)
     hinit0       :      0.01s CPU      0.02s WALL (       1 calls)

     Called by electrons:
     c_bands      :      5.77s CPU      8.55s WALL (      10 calls)
     sum_band     :      0.65s CPU      0.99s WALL (      10 calls)
     v_of_rho     :      0.00s CPU      0.01s WALL (      11 calls)
     mix_rho      :      0.00s CPU      0.00s WALL (      10 calls)

     Called by c_bands:
     init_us_2    :      0.05s CPU      0.08s WALL (   12650 calls)
     init_us_2:cp :      0.04s CPU      0.07s WALL (   12650 calls)
     cegterg      :      5.33s CPU      7.80s WALL (    5500 calls)

     Called by *egterg:
     cdiaghg      :      1.55s CPU      2.14s WALL (   14483 calls)
     h_psi        :      3.16s CPU      4.73s WALL (   15033 calls)
     g_psi        :      0.01s CPU      0.01s WALL (    8983 calls)

     Called by h_psi:
     h_psi:calbec :      0.27s CPU      0.40s WALL (   15033 calls)
     vloc_psi     :      2.74s CPU      4.10s WALL (   15033 calls)
     add_vuspsi   :      0.11s CPU      0.17s WALL (   15033 calls)

     General routines
     calbec       :      0.30s CPU      0.47s WALL (   17783 calls)
     fft          :      0.00s CPU      0.00s WALL (     249 calls)
     ffts         :      0.00s CPU      0.00s WALL (      20 calls)
     fftw         :      3.08s CPU      4.65s WALL (  399996 calls)

     Parallel routines

     PWSCF        :      7.08s CPU     11.11s WALL


   This run was terminated on:  11:38:43  18Jun2023            

=------------------------------------------------------------------------------=
   JOB DONE.
=------------------------------------------------------------------------------=
