Ignoring PCI device with non-16bit domain.
Pass --enable-32bits-pci-domain to configure to support such devices
(warning: it would break the library ABI, don't enable unless really needed).

     Program PWSCF v.7.1 starts on 18Jun2023 at 15:27:17 

     This program is part of the open-source Quantum ESPRESSO suite
     for quantum simulation of materials; please cite
         "P. Giannozzi et al., J. Phys.:Condens. Matter 21 395502 (2009);
         "P. Giannozzi et al., J. Phys.:Condens. Matter 29 465901 (2017);
         "P. Giannozzi et al., J. Chem. Phys. 152 154105 (2020);
          URL http://www.quantum-espresso.org", 
     in publications or presentations arising from this work. More details at
     http://www.quantum-espresso.org/quote

     Parallel version (MPI), running on    24 processors

     MPI processes distributed on     1 nodes
     9547 MiB available memory on the printing compute node when the environment starts

     Reading input from Ni_orthorhombic_so_atoms.in

     Current dimensions of program PWSCF are:
     Max number of different atomic species (ntypx) = 10
     Max number of k-points (npk) =  40000
     Max angular momentum in pseudopotentials (lmaxx) =  4

     K-points division:     npool     =       2
     R & G space division:  proc/nbgrp/npool/nimage =      12
     Subspace diagonalization in iterative solution of the eigenvalue problem:
     a serial algorithm will be used


     Parallelization info
     --------------------
     sticks:   dense  smooth     PW     G-vecs:    dense   smooth      PW
     Min          54      27      9                 1244      439      85
     Max          55      28     10                 1247      442      88
     Sum         657     329    111                14943     5293    1027

     Using Slab Decomposition



     bravais-lattice index     =            0
     lattice parameter (alat)  =       3.7795  a.u.
     unit-cell volume          =      84.2192 (a.u.)^3
     number of atoms/cell      =            1
     number of atomic types    =            1
     number of electrons       =        18.00
     number of Kohn-Sham states=           13
     kinetic-energy cutoff     =      60.0000  Ry
     charge density cutoff     =     480.0000  Ry
     scf convergence threshold =      1.0E-06
     mixing beta               =       0.7000
     number of iterations used =            8  TF        mixing
     energy convergence thresh.=      1.0E-05
     force convergence thresh. =      1.0E-04
     press convergence thresh. =      5.0E-01
     Exchange-correlation= PBE
                           (   1   4   3   4   0   0   0)
     nstep                     =           50


     celldm(1)=   3.779452  celldm(2)=   0.000000  celldm(3)=   0.000000
     celldm(4)=   0.000000  celldm(5)=   0.000000  celldm(6)=   0.000000

     crystal axes: (cart. coord. in units of alat)
               a(1) = (   1.000000   0.000000   0.000000 )  
               a(2) = (   0.000000   1.200000   0.000000 )  
               a(3) = (   0.000000   0.000000   1.300000 )  

     reciprocal axes: (cart. coord. in units 2 pi/alat)
               b(1) = (  1.000000  0.000000  0.000000 )  
               b(2) = (  0.000000  0.833333  0.000000 )  
               b(3) = (  0.000000  0.000000  0.769231 )  


     PseudoPot. # 1 for Ni read from file:
     /home/jmgoff/work/automation/qe_pseudos/Ni.upf
     MD5 check sum: caf20d35bef94d268ef04de15446df97
     Pseudo is Ultrasoft + core correction, Zval = 18.0
     Generated using 'atomic' code by A. Dal Corso  v.7.1
     Using radial grid of 1195 points,  6 beta functions with: 
                l(1) =   0
                l(2) =   0
                l(3) =   1
                l(4) =   1
                l(5) =   2
                l(6) =   2
     Q(r) pseudized with 0 coefficients 


     atomic species   valence    mass     pseudopotential
        Ni            18.00    58.69340     Ni( 1.00)

     Starting magnetic structure 
     atomic species   magnetization
        Ni           1.000

     No symmetry found



   Cartesian axes

     site n.     atom                  positions (alat units)
         1           Ni  tau(   1) = (   0.0000000   0.0000000   0.0000000  )

     number of k points=   397  Marzari-Vanderbilt smearing, width (Ry)=  0.0100

     Number of k-points >= 100: set verbosity='high' to print them.

     Dense  grid:    14943 G-vectors     FFT dimensions: (  27,  32,  36)

     Smooth grid:     5293 G-vectors     FFT dimensions: (  20,  24,  25)

     Estimated max dynamical RAM per process >      10.98 MB

     Estimated total dynamical RAM >     256.15 MB

     Check: negative core charge=   -0.000001
     Generating pointlists ...
     new r_m :   0.4125 (alat units)  1.5590 (a.u.) for type    1

     Initial potential from superposition of free atoms

     starting charge      17.9998, renormalised to      18.0000
     Starting wfcs are   10 randomized atomic wfcs +    3 random wfcs

     total cpu time spent up to now is        0.7 secs

     Self-consistent Calculation

     iteration #  1     ecut=    60.00 Ry     beta= 0.70
     Davidson diagonalization with overlap
     ethr =  1.00E-02,  avg # of iterations =  5.4

     negative rho (up, down):  0.000E+00 1.368E-04

     total cpu time spent up to now is        3.2 secs

     total energy              =    -335.67329444 Ry
     estimated scf accuracy    <       8.51548411 Ry

     total magnetization       =     6.36 Bohr mag/cell
     absolute magnetization    =     6.36 Bohr mag/cell

     iteration #  2     ecut=    60.00 Ry     beta= 0.70
     Davidson diagonalization with overlap
     ethr =  1.00E-02,  avg # of iterations =  2.5

     total cpu time spent up to now is        5.0 secs

     total energy              =    -338.59417496 Ry
     estimated scf accuracy    <       6.93215369 Ry

     total magnetization       =     0.78 Bohr mag/cell
     absolute magnetization    =     0.93 Bohr mag/cell

     iteration #  3     ecut=    60.00 Ry     beta= 0.70
     Davidson diagonalization with overlap
     ethr =  1.00E-02,  avg # of iterations =  2.0

     total cpu time spent up to now is        6.6 secs

     total energy              =    -339.50607171 Ry
     estimated scf accuracy    <       0.97007659 Ry

     total magnetization       =     1.44 Bohr mag/cell
     absolute magnetization    =     1.59 Bohr mag/cell

     iteration #  4     ecut=    60.00 Ry     beta= 0.70
     Davidson diagonalization with overlap
     ethr =  5.39E-03,  avg # of iterations =  2.3

     total cpu time spent up to now is        8.3 secs

     total energy              =    -336.38796718 Ry
     estimated scf accuracy    <     201.02217044 Ry

     total magnetization       =     0.68 Bohr mag/cell
     absolute magnetization    =    20.49 Bohr mag/cell

     iteration #  5     ecut=    60.00 Ry     beta= 0.70
     Davidson diagonalization with overlap
     ethr =  5.39E-03,  avg # of iterations =  2.0

     total cpu time spent up to now is       10.0 secs

     total energy              =    -339.46894970 Ry
     estimated scf accuracy    <       0.16035285 Ry

     total magnetization       =     0.89 Bohr mag/cell
     absolute magnetization    =     1.14 Bohr mag/cell

     iteration #  6     ecut=    60.00 Ry     beta= 0.70
     Davidson diagonalization with overlap
     ethr =  8.91E-04,  avg # of iterations =  2.0

     total cpu time spent up to now is       11.6 secs

     total energy              =    -339.55128275 Ry
     estimated scf accuracy    <       4.76596598 Ry

     total magnetization       =     0.80 Bohr mag/cell
     absolute magnetization    =     2.10 Bohr mag/cell

     iteration #  7     ecut=    60.00 Ry     beta= 0.70
     Davidson diagonalization with overlap
     ethr =  8.91E-04,  avg # of iterations =  2.0

     total cpu time spent up to now is       13.2 secs

     total energy              =    -339.19824560 Ry
     estimated scf accuracy    <      18.62489105 Ry

     total magnetization       =     0.73 Bohr mag/cell
     absolute magnetization    =     6.40 Bohr mag/cell

     iteration #  8     ecut=    60.00 Ry     beta= 0.70
     Davidson diagonalization with overlap
     ethr =  8.91E-04,  avg # of iterations =  2.0

     total cpu time spent up to now is       14.8 secs

     total energy              =    -339.50102804 Ry
     estimated scf accuracy    <       0.58569010 Ry

     total magnetization       =     0.79 Bohr mag/cell
     absolute magnetization    =     1.53 Bohr mag/cell

     iteration #  9     ecut=    60.00 Ry     beta= 0.70
     Davidson diagonalization with overlap
     ethr =  8.91E-04,  avg # of iterations =  1.4

     total cpu time spent up to now is       16.2 secs

     total energy              =    -339.50571623 Ry
     estimated scf accuracy    <       0.20671280 Ry

     total magnetization       =     0.78 Bohr mag/cell
     absolute magnetization    =     1.10 Bohr mag/cell

     iteration # 10     ecut=    60.00 Ry     beta= 0.70
     Davidson diagonalization with overlap
     ethr =  8.91E-04,  avg # of iterations =  1.9

     total cpu time spent up to now is       17.7 secs

     total energy              =    -339.49815165 Ry
     estimated scf accuracy    <       0.62022311 Ry

     total magnetization       =     0.75 Bohr mag/cell
     absolute magnetization    =     1.56 Bohr mag/cell

     iteration # 11     ecut=    60.00 Ry     beta= 0.70
     Davidson diagonalization with overlap
     ethr =  8.91E-04,  avg # of iterations =  1.9

     total cpu time spent up to now is       19.1 secs

     total energy              =    -339.50685660 Ry
     estimated scf accuracy    <       0.10186202 Ry

     total magnetization       =     0.75 Bohr mag/cell
     absolute magnetization    =     1.01 Bohr mag/cell

     iteration # 12     ecut=    60.00 Ry     beta= 0.70
     Davidson diagonalization with overlap
     ethr =  5.66E-04,  avg # of iterations =  1.0

     total cpu time spent up to now is       20.3 secs

     total energy              =    -339.50694653 Ry
     estimated scf accuracy    <       0.03773666 Ry

     total magnetization       =     0.74 Bohr mag/cell
     absolute magnetization    =     0.84 Bohr mag/cell

     iteration # 13     ecut=    60.00 Ry     beta= 0.70
     Davidson diagonalization with overlap
     ethr =  2.10E-04,  avg # of iterations =  1.0

     total cpu time spent up to now is       21.5 secs

     total energy              =    -339.50742175 Ry
     estimated scf accuracy    <       0.00489782 Ry

     total magnetization       =     0.74 Bohr mag/cell
     absolute magnetization    =     0.81 Bohr mag/cell

     iteration # 14     ecut=    60.00 Ry     beta= 0.70
     Davidson diagonalization with overlap
     ethr =  2.72E-05,  avg # of iterations =  1.1

     total cpu time spent up to now is       22.8 secs

     total energy              =    -339.50752686 Ry
     estimated scf accuracy    <       0.00008426 Ry

     total magnetization       =     0.73 Bohr mag/cell
     absolute magnetization    =     0.80 Bohr mag/cell

     iteration # 15     ecut=    60.00 Ry     beta= 0.70
     Davidson diagonalization with overlap
     ethr =  4.68E-07,  avg # of iterations =  2.1

     total cpu time spent up to now is       24.2 secs

     total energy              =    -339.50753590 Ry
     estimated scf accuracy    <       0.00019718 Ry

     total magnetization       =     0.73 Bohr mag/cell
     absolute magnetization    =     0.79 Bohr mag/cell

     iteration # 16     ecut=    60.00 Ry     beta= 0.70
     Davidson diagonalization with overlap
     ethr =  4.68E-07,  avg # of iterations =  1.3

     total cpu time spent up to now is       25.6 secs

     total energy              =    -339.50754050 Ry
     estimated scf accuracy    <       0.00000406 Ry

     total magnetization       =     0.72 Bohr mag/cell
     absolute magnetization    =     0.79 Bohr mag/cell

     iteration # 17     ecut=    60.00 Ry     beta= 0.70
     Davidson diagonalization with overlap
     ethr =  2.25E-08,  avg # of iterations =  1.7

     total cpu time spent up to now is       27.0 secs

     total energy              =    -339.50754083 Ry
     estimated scf accuracy    <       0.00000525 Ry

     total magnetization       =     0.72 Bohr mag/cell
     absolute magnetization    =     0.79 Bohr mag/cell

     iteration # 18     ecut=    60.00 Ry     beta= 0.70
     Davidson diagonalization with overlap
     ethr =  2.25E-08,  avg # of iterations =  1.5

     total cpu time spent up to now is       28.4 secs

     total energy              =    -339.50754076 Ry
     estimated scf accuracy    <       0.00001065 Ry

     total magnetization       =     0.72 Bohr mag/cell
     absolute magnetization    =     0.79 Bohr mag/cell

     iteration # 19     ecut=    60.00 Ry     beta= 0.70
     Davidson diagonalization with overlap
     ethr =  2.25E-08,  avg # of iterations =  1.4

     Magnetic moment per site  (integrated on atomic sphere of radius R)
     atom   1 (R=0.413)  charge= 15.6105  magn=  0.7408

     total cpu time spent up to now is       29.8 secs

     End of self-consistent calculation

     Number of k-points >= 100: set verbosity='high' to print the bands.

     the Fermi energy is    15.3005 ev

!    total energy              =    -339.50754115 Ry
     estimated scf accuracy    <       0.00000046 Ry
     smearing contrib. (-TS)   =      -0.00005548 Ry
     internal energy E=F+TS    =    -339.50748567 Ry

     The total energy is F=E-TS. E is the sum of the following terms:
     one-electron contribution =    -217.79220341 Ry
     hartree contribution      =     118.49085386 Ry
     xc contribution           =     -34.36806526 Ry
     ewald contribution        =    -205.83807087 Ry

     total magnetization       =     0.72 Bohr mag/cell
     absolute magnetization    =     0.79 Bohr mag/cell

     convergence has been achieved in  19 iterations

     Forces acting on atoms (cartesian axes, Ry/au):

     atom    1 type  1   force =     0.00000000    0.00000000    0.00000000

     Total force =     0.000000     Total SCF correction =     0.000606


     Computing stress (Cartesian axis) and pressure

          total   stress  (Ry/bohr**3)                   (kbar)     P=      190.29
   0.00551212  -0.00000005  -0.00000026          810.86       -0.01       -0.04
  -0.00000005  -0.00018106  -0.00000027           -0.01      -26.63       -0.04
  -0.00000026  -0.00000027  -0.00145037           -0.04       -0.04     -213.36


     BFGS Geometry Optimization
     Energy error            =      0.0E+00 Ry
     Gradient error          =      0.0E+00 Ry/Bohr
     Cell gradient error     =      8.1E+02 kbar

     number of scf cycles    =   1
     number of bfgs steps    =   0

     enthalpy           new  =    -339.5075411516 Ry

     new trust radius        =       0.2529262428 bohr
     new conv_thr            =       0.0000010000 Ry

     new unit-cell volume =     91.93228 a.u.^3 (    13.62296 Ang^3 )
     density =      7.15430 g/cm^3

CELL_PARAMETERS (bohr)
   4.300271412  -0.000005080  -0.000024153
  -0.000006096   4.514813059  -0.000030835
  -0.000031399  -0.000033404   4.735135312

ATOMIC_POSITIONS (crystal)
Ni            0.0000000000        0.0000000000        0.0000000000



     Writing config-only to output data dir ./out/pwscf.save/
     NEW-OLD atomic charge density approx. for the potential

     Check: negative core charge=   -0.000002
     extrapolated charge   19.51017, renormalised to   18.00000
     Generating pointlists ...

     total cpu time spent up to now is       30.3 secs

     Self-consistent Calculation

     iteration #  1     ecut=    60.00 Ry     beta= 0.70
     Davidson diagonalization with overlap
     c_bands:  1 eigenvalues not converged
     c_bands:  1 eigenvalues not converged
     ethr =  1.00E-06,  avg # of iterations = 11.1

     total cpu time spent up to now is       35.6 secs

     total energy              =    -328.84550492 Ry
     estimated scf accuracy    <      12.99119019 Ry

     total magnetization       =     0.48 Bohr mag/cell
     absolute magnetization    =     0.50 Bohr mag/cell

     iteration #  2     ecut=    60.00 Ry     beta= 0.70
     Davidson diagonalization with overlap
     ethr =  1.00E-02,  avg # of iterations =  3.0

     total cpu time spent up to now is       37.7 secs

     total energy              =    -340.06906785 Ry
     estimated scf accuracy    <      25.35913727 Ry

     total magnetization       =     0.00 Bohr mag/cell
     absolute magnetization    =     0.73 Bohr mag/cell

     iteration #  3     ecut=    60.00 Ry     beta= 0.70
     Davidson diagonalization with overlap
     ethr =  1.00E-02,  avg # of iterations =  2.0

     negative rho (up, down):  4.484E-07 0.000E+00

     total cpu time spent up to now is       39.4 secs

     total energy              =    -340.88800993 Ry
     estimated scf accuracy    <      60.79864098 Ry

     total magnetization       =     0.00 Bohr mag/cell
     absolute magnetization    =    10.54 Bohr mag/cell

     iteration #  4     ecut=    60.00 Ry     beta= 0.70
     Davidson diagonalization with overlap
     ethr =  1.00E-02,  avg # of iterations =  2.0

     total cpu time spent up to now is       40.9 secs

     total energy              =    -339.79502467 Ry
     estimated scf accuracy    <      13.94627890 Ry

     total magnetization       =    -0.00 Bohr mag/cell
     absolute magnetization    =     3.72 Bohr mag/cell

     iteration #  5     ecut=    60.00 Ry     beta= 0.70
     Davidson diagonalization with overlap
     ethr =  1.00E-02,  avg # of iterations =  2.0

     negative rho (up, down):  1.073E-04 5.500E-04

     total cpu time spent up to now is       42.4 secs

     total energy              =    -339.67011061 Ry
     estimated scf accuracy    <      31.79026651 Ry

     total magnetization       =     0.10 Bohr mag/cell
     absolute magnetization    =     7.64 Bohr mag/cell

     iteration #  6     ecut=    60.00 Ry     beta= 0.70
     Davidson diagonalization with overlap
     ethr =  1.00E-02,  avg # of iterations =  2.0

     total cpu time spent up to now is       43.9 secs

     total energy              =    -339.88392678 Ry
     estimated scf accuracy    <       4.22846805 Ry

     total magnetization       =     0.10 Bohr mag/cell
     absolute magnetization    =     1.11 Bohr mag/cell

     iteration #  7     ecut=    60.00 Ry     beta= 0.70
     Davidson diagonalization with overlap
     ethr =  1.00E-02,  avg # of iterations =  1.0

     total cpu time spent up to now is       45.1 secs

     total energy              =    -339.60678657 Ry
     estimated scf accuracy    <       2.52328576 Ry

     total magnetization       =     0.13 Bohr mag/cell
     absolute magnetization    =     0.24 Bohr mag/cell

     iteration #  8     ecut=    60.00 Ry     beta= 0.70
     Davidson diagonalization with overlap
     ethr =  1.00E-02,  avg # of iterations =  1.0

     total cpu time spent up to now is       46.4 secs

     total energy              =    -339.67135400 Ry
     estimated scf accuracy    <       1.03607566 Ry

     total magnetization       =     0.25 Bohr mag/cell
     absolute magnetization    =     0.55 Bohr mag/cell

     iteration #  9     ecut=    60.00 Ry     beta= 0.70
     Davidson diagonalization with overlap
     ethr =  5.76E-03,  avg # of iterations =  1.0

     total cpu time spent up to now is       47.6 secs

     total energy              =    -339.65015263 Ry
     estimated scf accuracy    <       1.22246023 Ry

     total magnetization       =     0.25 Bohr mag/cell
     absolute magnetization    =     0.93 Bohr mag/cell

     iteration # 10     ecut=    60.00 Ry     beta= 0.70
     Davidson diagonalization with overlap
     ethr =  5.76E-03,  avg # of iterations =  1.0

     total cpu time spent up to now is       48.8 secs

     total energy              =    -339.40304266 Ry
     estimated scf accuracy    <       0.78376707 Ry

     total magnetization       =     0.26 Bohr mag/cell
     absolute magnetization    =     0.31 Bohr mag/cell

     iteration # 11     ecut=    60.00 Ry     beta= 0.70
     Davidson diagonalization with overlap
     ethr =  4.35E-03,  avg # of iterations =  1.3

     total cpu time spent up to now is       50.1 secs

     total energy              =    -339.52279569 Ry
     estimated scf accuracy    <       0.02179073 Ry

     total magnetization       =     0.58 Bohr mag/cell
     absolute magnetization    =     0.64 Bohr mag/cell

     iteration # 12     ecut=    60.00 Ry     beta= 0.70
     Davidson diagonalization with overlap
     ethr =  1.21E-04,  avg # of iterations =  2.2

     total cpu time spent up to now is       51.6 secs

     total energy              =    -339.52453389 Ry
     estimated scf accuracy    <       0.04254273 Ry

     total magnetization       =     0.61 Bohr mag/cell
     absolute magnetization    =     0.64 Bohr mag/cell

     iteration # 13     ecut=    60.00 Ry     beta= 0.70
     Davidson diagonalization with overlap
     ethr =  1.21E-04,  avg # of iterations =  1.5

     total cpu time spent up to now is       53.1 secs

     total energy              =    -339.52541462 Ry
     estimated scf accuracy    <       0.00477642 Ry

     total magnetization       =     0.62 Bohr mag/cell
     absolute magnetization    =     0.65 Bohr mag/cell

     iteration # 14     ecut=    60.00 Ry     beta= 0.70
     Davidson diagonalization with overlap
     ethr =  2.65E-05,  avg # of iterations =  2.1

     total cpu time spent up to now is       54.6 secs

     total energy              =    -339.52592146 Ry
     estimated scf accuracy    <       0.02061284 Ry

     total magnetization       =     0.69 Bohr mag/cell
     absolute magnetization    =     0.77 Bohr mag/cell

     iteration # 15     ecut=    60.00 Ry     beta= 0.70
     Davidson diagonalization with overlap
     ethr =  2.65E-05,  avg # of iterations =  1.0

     total cpu time spent up to now is       55.8 secs

     total energy              =    -339.52586035 Ry
     estimated scf accuracy    <       0.01284208 Ry

     total magnetization       =     0.69 Bohr mag/cell
     absolute magnetization    =     0.76 Bohr mag/cell

     iteration # 16     ecut=    60.00 Ry     beta= 0.70
     Davidson diagonalization with overlap
     ethr =  2.65E-05,  avg # of iterations =  2.0

     total cpu time spent up to now is       57.3 secs

     total energy              =    -339.52687526 Ry
     estimated scf accuracy    <       0.07592379 Ry

     total magnetization       =     0.66 Bohr mag/cell
     absolute magnetization    =     0.85 Bohr mag/cell

     iteration # 17     ecut=    60.00 Ry     beta= 0.70
     Davidson diagonalization with overlap
     ethr =  2.65E-05,  avg # of iterations =  1.5

     total cpu time spent up to now is       58.7 secs

     total energy              =    -339.52297213 Ry
     estimated scf accuracy    <       0.11101825 Ry

     total magnetization       =     0.70 Bohr mag/cell
     absolute magnetization    =     0.90 Bohr mag/cell

     iteration # 18     ecut=    60.00 Ry     beta= 0.70
     Davidson diagonalization with overlap
     ethr =  2.65E-05,  avg # of iterations =  1.9

     total cpu time spent up to now is       60.2 secs

     total energy              =    -339.52601185 Ry
     estimated scf accuracy    <       0.00516126 Ry

     total magnetization       =     0.75 Bohr mag/cell
     absolute magnetization    =     0.81 Bohr mag/cell

     iteration # 19     ecut=    60.00 Ry     beta= 0.70
     Davidson diagonalization with overlap
     ethr =  2.65E-05,  avg # of iterations =  1.4

     total cpu time spent up to now is       61.5 secs

     total energy              =    -339.52638466 Ry
     estimated scf accuracy    <       0.00171213 Ry

     total magnetization       =     0.77 Bohr mag/cell
     absolute magnetization    =     0.83 Bohr mag/cell

     iteration # 20     ecut=    60.00 Ry     beta= 0.70
     Davidson diagonalization with overlap
     ethr =  9.51E-06,  avg # of iterations =  1.0

     total cpu time spent up to now is       62.8 secs

     total energy              =    -339.52625812 Ry
     estimated scf accuracy    <       0.00361870 Ry

     total magnetization       =     0.77 Bohr mag/cell
     absolute magnetization    =     0.83 Bohr mag/cell

     iteration # 21     ecut=    60.00 Ry     beta= 0.70
     Davidson diagonalization with overlap
     ethr =  9.51E-06,  avg # of iterations =  1.0

     total cpu time spent up to now is       64.0 secs

     total energy              =    -339.52634415 Ry
     estimated scf accuracy    <       0.00009511 Ry

     total magnetization       =     0.78 Bohr mag/cell
     absolute magnetization    =     0.83 Bohr mag/cell

     iteration # 22     ecut=    60.00 Ry     beta= 0.70
     Davidson diagonalization with overlap
     ethr =  5.28E-07,  avg # of iterations =  1.3

     total cpu time spent up to now is       65.3 secs

     total energy              =    -339.52636185 Ry
     estimated scf accuracy    <       0.00011038 Ry

     total magnetization       =     0.79 Bohr mag/cell
     absolute magnetization    =     0.85 Bohr mag/cell

     iteration # 23     ecut=    60.00 Ry     beta= 0.70
     Davidson diagonalization with overlap
     ethr =  5.28E-07,  avg # of iterations =  1.5

     total cpu time spent up to now is       66.7 secs

     total energy              =    -339.52636561 Ry
     estimated scf accuracy    <       0.00003232 Ry

     total magnetization       =     0.79 Bohr mag/cell
     absolute magnetization    =     0.85 Bohr mag/cell

     iteration # 24     ecut=    60.00 Ry     beta= 0.70
     Davidson diagonalization with overlap
     ethr =  1.80E-07,  avg # of iterations =  2.0

     total cpu time spent up to now is       68.2 secs

     total energy              =    -339.52636476 Ry
     estimated scf accuracy    <       0.00033089 Ry

     total magnetization       =     0.80 Bohr mag/cell
     absolute magnetization    =     0.86 Bohr mag/cell

     iteration # 25     ecut=    60.00 Ry     beta= 0.70
     Davidson diagonalization with overlap
     ethr =  1.80E-07,  avg # of iterations =  1.0

     total cpu time spent up to now is       69.5 secs

     total energy              =    -339.52635227 Ry
     estimated scf accuracy    <       0.00030424 Ry

     total magnetization       =     0.80 Bohr mag/cell
     absolute magnetization    =     0.86 Bohr mag/cell

     iteration # 26     ecut=    60.00 Ry     beta= 0.70
     Davidson diagonalization with overlap
     ethr =  1.80E-07,  avg # of iterations =  1.9

     total cpu time spent up to now is       71.0 secs

     total energy              =    -339.52636271 Ry
     estimated scf accuracy    <       0.00027361 Ry

     total magnetization       =     0.80 Bohr mag/cell
     absolute magnetization    =     0.85 Bohr mag/cell

     iteration # 27     ecut=    60.00 Ry     beta= 0.70
     Davidson diagonalization with overlap
     ethr =  1.80E-07,  avg # of iterations =  1.5

     total cpu time spent up to now is       72.4 secs

     total energy              =    -339.52636523 Ry
     estimated scf accuracy    <       0.00007781 Ry

     total magnetization       =     0.80 Bohr mag/cell
     absolute magnetization    =     0.86 Bohr mag/cell

     iteration # 28     ecut=    60.00 Ry     beta= 0.70
     Davidson diagonalization with overlap
     ethr =  1.80E-07,  avg # of iterations =  1.5

     total cpu time spent up to now is       73.8 secs

     total energy              =    -339.52636918 Ry
     estimated scf accuracy    <       0.00005215 Ry

     total magnetization       =     0.80 Bohr mag/cell
     absolute magnetization    =     0.86 Bohr mag/cell

     iteration # 29     ecut=    60.00 Ry     beta= 0.70
     Davidson diagonalization with overlap
     ethr =  1.80E-07,  avg # of iterations =  1.5

     total cpu time spent up to now is       75.3 secs

     total energy              =    -339.52637007 Ry
     estimated scf accuracy    <       0.00003463 Ry

     total magnetization       =     0.81 Bohr mag/cell
     absolute magnetization    =     0.86 Bohr mag/cell

     iteration # 30     ecut=    60.00 Ry     beta= 0.70
     Davidson diagonalization with overlap
     ethr =  1.80E-07,  avg # of iterations =  1.0

     total cpu time spent up to now is       76.5 secs

     total energy              =    -339.52636645 Ry
     estimated scf accuracy    <       0.00001600 Ry

     total magnetization       =     0.81 Bohr mag/cell
     absolute magnetization    =     0.87 Bohr mag/cell

     iteration # 31     ecut=    60.00 Ry     beta= 0.70
     Davidson diagonalization with overlap
     ethr =  8.89E-08,  avg # of iterations =  1.5

     total cpu time spent up to now is       77.9 secs

     total energy              =    -339.52637216 Ry
     estimated scf accuracy    <       0.00000913 Ry

     total magnetization       =     0.82 Bohr mag/cell
     absolute magnetization    =     0.88 Bohr mag/cell

     iteration # 32     ecut=    60.00 Ry     beta= 0.70
     Davidson diagonalization with overlap
     ethr =  5.07E-08,  avg # of iterations =  1.0

     total cpu time spent up to now is       79.1 secs

     total energy              =    -339.52637215 Ry
     estimated scf accuracy    <       0.00000266 Ry

     total magnetization       =     0.82 Bohr mag/cell
     absolute magnetization    =     0.88 Bohr mag/cell

     iteration # 33     ecut=    60.00 Ry     beta= 0.70
     Davidson diagonalization with overlap
     ethr =  1.48E-08,  avg # of iterations =  1.0

     Magnetic moment per site  (integrated on atomic sphere of radius R)
     atom   1 (R=0.413)  charge= 15.5348  magn=  0.8301

     total cpu time spent up to now is       80.3 secs

     End of self-consistent calculation

     Number of k-points >= 100: set verbosity='high' to print the bands.

     the Fermi energy is    13.5269 ev

!    total energy              =    -339.52637250 Ry
     estimated scf accuracy    <       0.00000015 Ry
     smearing contrib. (-TS)   =      -0.00011924 Ry
     internal energy E=F+TS    =    -339.52625326 Ry

     The total energy is F=E-TS. E is the sum of the following terms:
     one-electron contribution =    -221.36186824 Ry
     hartree contribution      =     119.32083521 Ry
     xc contribution           =     -34.28042818 Ry
     ewald contribution        =    -203.20479205 Ry

     total magnetization       =     0.82 Bohr mag/cell
     absolute magnetization    =     0.88 Bohr mag/cell

     convergence has been achieved in  33 iterations

     Forces acting on atoms (cartesian axes, Ry/au):

     atom    1 type  1   force =     0.00000000    0.00000000    0.00000000

     Total force =     0.000000     Total SCF correction =     0.000343


     Computing stress (Cartesian axis) and pressure

          total   stress  (Ry/bohr**3)                   (kbar)     P=     -292.31
  -0.00325300   0.00000007   0.00000013         -478.53        0.01        0.02
   0.00000007  -0.00110177   0.00000005            0.01     -162.08        0.01
   0.00000013   0.00000005  -0.00160651            0.02        0.01     -236.33

     Energy error            =      1.9E-02 Ry
     Gradient error          =      0.0E+00 Ry/Bohr
     Cell gradient error     =      4.8E+02 kbar

     number of scf cycles    =   2
     number of bfgs steps    =   1

     enthalpy           old  =    -339.5075411516 Ry
     enthalpy           new  =    -339.5263724981 Ry

     CASE: enthalpy          _new < enthalpy          _old

     new trust radius        =       0.0715515703 bohr
     new conv_thr            =       0.0000000010 Ry

     new unit-cell volume =     83.74042 a.u.^3 (    12.40905 Ang^3 )
     density =      7.85416 g/cm^3

CELL_PARAMETERS (bohr)
   4.158755563  -0.000001359  -0.000019728
  -0.000001090   4.417270931  -0.000031247
  -0.000024655  -0.000033365   4.558455247

ATOMIC_POSITIONS (crystal)
Ni            0.0000000000        0.0000000000        0.0000000000



     Writing config-only to output data dir ./out/pwscf.save/
     NEW-OLD atomic charge density approx. for the potential

     Check: negative core charge=   -0.000002
     extrapolated charge   16.23918, renormalised to   18.00000
     Generating pointlists ...

     total cpu time spent up to now is       80.8 secs

     Self-consistent Calculation

     iteration #  1     ecut=    60.00 Ry     beta= 0.70
     Davidson diagonalization with overlap
     ethr =  1.00E-06,  avg # of iterations =  8.5

     total cpu time spent up to now is       85.2 secs

     total energy              =    -332.50625302 Ry
     estimated scf accuracy    <       8.17487187 Ry

     total magnetization       =     0.00 Bohr mag/cell
     absolute magnetization    =     0.07 Bohr mag/cell

     iteration #  2     ecut=    60.00 Ry     beta= 0.70
     Davidson diagonalization with overlap
     ethr =  1.00E-02,  avg # of iterations =  3.7

     total cpu time spent up to now is       87.4 secs

     total energy              =    -339.03277527 Ry
     estimated scf accuracy    <      26.26446626 Ry

     total magnetization       =     0.12 Bohr mag/cell
     absolute magnetization    =     0.26 Bohr mag/cell

     iteration #  3     ecut=    60.00 Ry     beta= 0.70
     Davidson diagonalization with overlap
     ethr =  1.00E-02,  avg # of iterations =  3.0

     total cpu time spent up to now is       89.3 secs

     total energy              =    -340.40810614 Ry
     estimated scf accuracy    <       5.97044525 Ry

     total magnetization       =     0.28 Bohr mag/cell
     absolute magnetization    =     1.70 Bohr mag/cell

     iteration #  4     ecut=    60.00 Ry     beta= 0.70
     Davidson diagonalization with overlap
     ethr =  1.00E-02,  avg # of iterations =  1.0

     total cpu time spent up to now is       90.5 secs

     total energy              =    -339.28429560 Ry
     estimated scf accuracy    <       6.39530360 Ry

     total magnetization       =     0.29 Bohr mag/cell
     absolute magnetization    =     2.14 Bohr mag/cell

     iteration #  5     ecut=    60.00 Ry     beta= 0.70
     Davidson diagonalization with overlap
     ethr =  1.00E-02,  avg # of iterations =  2.0

     total cpu time spent up to now is       92.0 secs

     total energy              =    -339.60220426 Ry
     estimated scf accuracy    <       0.77668510 Ry

     total magnetization       =     0.41 Bohr mag/cell
     absolute magnetization    =     0.53 Bohr mag/cell

     iteration #  6     ecut=    60.00 Ry     beta= 0.70
     Davidson diagonalization with overlap
     ethr =  4.31E-03,  avg # of iterations =  1.0

     total cpu time spent up to now is       93.2 secs

     total energy              =    -339.61073394 Ry
     estimated scf accuracy    <       0.68326214 Ry

     total magnetization       =     0.42 Bohr mag/cell
     absolute magnetization    =     0.93 Bohr mag/cell

     iteration #  7     ecut=    60.00 Ry     beta= 0.70
     Davidson diagonalization with overlap
     ethr =  3.80E-03,  avg # of iterations =  1.0

     total cpu time spent up to now is       94.4 secs

     total energy              =    -339.59801329 Ry
     estimated scf accuracy    <       0.47420339 Ry

     total magnetization       =     0.42 Bohr mag/cell
     absolute magnetization    =     0.59 Bohr mag/cell

     iteration #  8     ecut=    60.00 Ry     beta= 0.70
     Davidson diagonalization with overlap
     ethr =  2.63E-03,  avg # of iterations =  1.0

     total cpu time spent up to now is       95.6 secs

     total energy              =    -339.58520903 Ry
     estimated scf accuracy    <       0.35877051 Ry

     total magnetization       =     0.54 Bohr mag/cell
     absolute magnetization    =     0.55 Bohr mag/cell

     iteration #  9     ecut=    60.00 Ry     beta= 0.70
     Davidson diagonalization with overlap
     ethr =  1.99E-03,  avg # of iterations =  1.0

     total cpu time spent up to now is       96.8 secs

     total energy              =    -339.58454935 Ry
     estimated scf accuracy    <       0.29316219 Ry

     total magnetization       =     0.59 Bohr mag/cell
     absolute magnetization    =     0.63 Bohr mag/cell

     iteration # 10     ecut=    60.00 Ry     beta= 0.70
     Davidson diagonalization with overlap
     ethr =  1.63E-03,  avg # of iterations =  1.0

     total cpu time spent up to now is       98.0 secs

     total energy              =    -339.51873711 Ry
     estimated scf accuracy    <       0.31118514 Ry

     total magnetization       =     0.60 Bohr mag/cell
     absolute magnetization    =     0.73 Bohr mag/cell

     iteration # 11     ecut=    60.00 Ry     beta= 0.70
     Davidson diagonalization with overlap
     ethr =  1.63E-03,  avg # of iterations =  1.0

     total cpu time spent up to now is       99.3 secs

     total energy              =    -339.53128415 Ry
     estimated scf accuracy    <       0.02578665 Ry

     total magnetization       =     0.65 Bohr mag/cell
     absolute magnetization    =     0.67 Bohr mag/cell

     iteration # 12     ecut=    60.00 Ry     beta= 0.70
     Davidson diagonalization with overlap
     ethr =  1.43E-04,  avg # of iterations =  2.0

     total cpu time spent up to now is      100.7 secs

     total energy              =    -339.53614106 Ry
     estimated scf accuracy    <       0.00063011 Ry

     total magnetization       =     0.61 Bohr mag/cell
     absolute magnetization    =     0.65 Bohr mag/cell

     iteration # 13     ecut=    60.00 Ry     beta= 0.70
     Davidson diagonalization with overlap
     ethr =  3.50E-06,  avg # of iterations =  4.1

     total cpu time spent up to now is      102.6 secs

     total energy              =    -339.53615779 Ry
     estimated scf accuracy    <       0.00725356 Ry

     total magnetization       =     0.62 Bohr mag/cell
     absolute magnetization    =     0.65 Bohr mag/cell

     iteration # 14     ecut=    60.00 Ry     beta= 0.70
     Davidson diagonalization with overlap
     ethr =  3.50E-06,  avg # of iterations =  2.0

     total cpu time spent up to now is      104.1 secs

     total energy              =    -339.53631965 Ry
     estimated scf accuracy    <       0.00204765 Ry

     total magnetization       =     0.62 Bohr mag/cell
     absolute magnetization    =     0.66 Bohr mag/cell

     iteration # 15     ecut=    60.00 Ry     beta= 0.70
     Davidson diagonalization with overlap
     ethr =  3.50E-06,  avg # of iterations =  1.0

     total cpu time spent up to now is      105.4 secs

     total energy              =    -339.53631781 Ry
     estimated scf accuracy    <       0.00067119 Ry

     total magnetization       =     0.62 Bohr mag/cell
     absolute magnetization    =     0.66 Bohr mag/cell

     iteration # 16     ecut=    60.00 Ry     beta= 0.70
     Davidson diagonalization with overlap
     ethr =  3.50E-06,  avg # of iterations =  1.5

     total cpu time spent up to now is      106.8 secs

     total energy              =    -339.53637476 Ry
     estimated scf accuracy    <       0.00086744 Ry

     total magnetization       =     0.63 Bohr mag/cell
     absolute magnetization    =     0.67 Bohr mag/cell

     iteration # 17     ecut=    60.00 Ry     beta= 0.70
     Davidson diagonalization with overlap
     ethr =  3.50E-06,  avg # of iterations =  1.6

     total cpu time spent up to now is      108.2 secs

     total energy              =    -339.53627863 Ry
     estimated scf accuracy    <       0.00402061 Ry

     total magnetization       =     0.63 Bohr mag/cell
     absolute magnetization    =     0.67 Bohr mag/cell

     iteration # 18     ecut=    60.00 Ry     beta= 0.70
     Davidson diagonalization with overlap
     ethr =  3.50E-06,  avg # of iterations =  2.0

     total cpu time spent up to now is      109.6 secs

     total energy              =    -339.53636003 Ry
     estimated scf accuracy    <       0.00006372 Ry

     total magnetization       =     0.63 Bohr mag/cell
     absolute magnetization    =     0.68 Bohr mag/cell

     iteration # 19     ecut=    60.00 Ry     beta= 0.70
     Davidson diagonalization with overlap
     ethr =  3.54E-07,  avg # of iterations =  1.5

     total cpu time spent up to now is      111.1 secs

     total energy              =    -339.53637189 Ry
     estimated scf accuracy    <       0.00039930 Ry

     total magnetization       =     0.64 Bohr mag/cell
     absolute magnetization    =     0.68 Bohr mag/cell

     iteration # 20     ecut=    60.00 Ry     beta= 0.70
     Davidson diagonalization with overlap
     ethr =  3.54E-07,  avg # of iterations =  2.0

     total cpu time spent up to now is      112.6 secs

     total energy              =    -339.53635402 Ry
     estimated scf accuracy    <       0.00074978 Ry

     total magnetization       =     0.64 Bohr mag/cell
     absolute magnetization    =     0.69 Bohr mag/cell

     iteration # 21     ecut=    60.00 Ry     beta= 0.70
     Davidson diagonalization with overlap
     ethr =  3.54E-07,  avg # of iterations =  2.0

     total cpu time spent up to now is      114.1 secs

     total energy              =    -339.53636167 Ry
     estimated scf accuracy    <       0.00008898 Ry

     total magnetization       =     0.64 Bohr mag/cell
     absolute magnetization    =     0.68 Bohr mag/cell

     iteration # 22     ecut=    60.00 Ry     beta= 0.70
     Davidson diagonalization with overlap
     ethr =  3.54E-07,  avg # of iterations =  1.5

     total cpu time spent up to now is      115.5 secs

     total energy              =    -339.53637541 Ry
     estimated scf accuracy    <       0.00000352 Ry

     total magnetization       =     0.65 Bohr mag/cell
     absolute magnetization    =     0.70 Bohr mag/cell

     iteration # 23     ecut=    60.00 Ry     beta= 0.70
     Davidson diagonalization with overlap
     ethr =  1.95E-08,  avg # of iterations =  1.8

     total cpu time spent up to now is      116.9 secs

     total energy              =    -339.53637573 Ry
     estimated scf accuracy    <       0.00000698 Ry

     total magnetization       =     0.65 Bohr mag/cell
     absolute magnetization    =     0.70 Bohr mag/cell

     iteration # 24     ecut=    60.00 Ry     beta= 0.70
     Davidson diagonalization with overlap
     ethr =  1.95E-08,  avg # of iterations =  1.5

     total cpu time spent up to now is      118.3 secs

     total energy              =    -339.53637602 Ry
     estimated scf accuracy    <       0.00000089 Ry

     total magnetization       =     0.65 Bohr mag/cell
     absolute magnetization    =     0.70 Bohr mag/cell

     iteration # 25     ecut=    60.00 Ry     beta= 0.70
     Davidson diagonalization with overlap
     ethr =  4.97E-09,  avg # of iterations =  2.0

     total cpu time spent up to now is      119.8 secs

     total energy              =    -339.53637549 Ry
     estimated scf accuracy    <       0.00001907 Ry

     total magnetization       =     0.65 Bohr mag/cell
     absolute magnetization    =     0.70 Bohr mag/cell

     iteration # 26     ecut=    60.00 Ry     beta= 0.70
     Davidson diagonalization with overlap
     ethr =  4.97E-09,  avg # of iterations =  2.0

     total cpu time spent up to now is      121.3 secs

     total energy              =    -339.53637599 Ry
     estimated scf accuracy    <       0.00000068 Ry

     total magnetization       =     0.65 Bohr mag/cell
     absolute magnetization    =     0.70 Bohr mag/cell

     iteration # 27     ecut=    60.00 Ry     beta= 0.70
     Davidson diagonalization with overlap
     ethr =  3.77E-09,  avg # of iterations =  1.4

     total cpu time spent up to now is      122.7 secs

     total energy              =    -339.53637601 Ry
     estimated scf accuracy    <       0.00000059 Ry

     total magnetization       =     0.65 Bohr mag/cell
     absolute magnetization    =     0.70 Bohr mag/cell

     iteration # 28     ecut=    60.00 Ry     beta= 0.70
     Davidson diagonalization with overlap
     ethr =  3.27E-09,  avg # of iterations =  1.0

     total cpu time spent up to now is      123.9 secs

     total energy              =    -339.53637600 Ry
     estimated scf accuracy    <       0.00000038 Ry

     total magnetization       =     0.65 Bohr mag/cell
     absolute magnetization    =     0.70 Bohr mag/cell

     iteration # 29     ecut=    60.00 Ry     beta= 0.70
     Davidson diagonalization with overlap
     ethr =  2.10E-09,  avg # of iterations =  1.0

     total cpu time spent up to now is      125.1 secs

     total energy              =    -339.53637601 Ry
     estimated scf accuracy    <       0.00000002 Ry

     total magnetization       =     0.65 Bohr mag/cell
     absolute magnetization    =     0.70 Bohr mag/cell

     iteration # 30     ecut=    60.00 Ry     beta= 0.70
     Davidson diagonalization with overlap
     ethr =  8.83E-11,  avg # of iterations =  1.0

     total cpu time spent up to now is      126.3 secs

     total energy              =    -339.53637601 Ry
     estimated scf accuracy    <       0.00000003 Ry

     total magnetization       =     0.65 Bohr mag/cell
     absolute magnetization    =     0.70 Bohr mag/cell

     iteration # 31     ecut=    60.00 Ry     beta= 0.70
     Davidson diagonalization with overlap
     ethr =  8.83E-11,  avg # of iterations =  1.0

     total cpu time spent up to now is      127.5 secs

     total energy              =    -339.53637601 Ry
     estimated scf accuracy    <       0.00000003 Ry

     total magnetization       =     0.65 Bohr mag/cell
     absolute magnetization    =     0.70 Bohr mag/cell

     iteration # 32     ecut=    60.00 Ry     beta= 0.70
     Davidson diagonalization with overlap
     ethr =  8.83E-11,  avg # of iterations =  1.0

     total cpu time spent up to now is      128.7 secs

     total energy              =    -339.53637601 Ry
     estimated scf accuracy    <       0.00000005 Ry

     total magnetization       =     0.65 Bohr mag/cell
     absolute magnetization    =     0.70 Bohr mag/cell

     iteration # 33     ecut=    60.00 Ry     beta= 0.70
     Davidson diagonalization with overlap
     ethr =  8.83E-11,  avg # of iterations =  1.0

     total cpu time spent up to now is      129.9 secs

     total energy              =    -339.53637601 Ry
     estimated scf accuracy    <       0.00000001 Ry

     total magnetization       =     0.65 Bohr mag/cell
     absolute magnetization    =     0.70 Bohr mag/cell

     iteration # 34     ecut=    60.00 Ry     beta= 0.70
     Davidson diagonalization with overlap
     ethr =  6.52E-11,  avg # of iterations =  1.0

     total cpu time spent up to now is      131.1 secs

     total energy              =    -339.53637601 Ry
     estimated scf accuracy    <       0.00000001 Ry

     total magnetization       =     0.65 Bohr mag/cell
     absolute magnetization    =     0.70 Bohr mag/cell

     iteration # 35     ecut=    60.00 Ry     beta= 0.70
     Davidson diagonalization with overlap
     ethr =  6.01E-11,  avg # of iterations =  1.0

     total cpu time spent up to now is      132.3 secs

     total energy              =    -339.53637601 Ry
     estimated scf accuracy    <          2.0E-09 Ry

     total magnetization       =     0.65 Bohr mag/cell
     absolute magnetization    =     0.70 Bohr mag/cell

     iteration # 36     ecut=    60.00 Ry     beta= 0.70
     Davidson diagonalization with overlap
     ethr =  1.14E-11,  avg # of iterations =  1.0

     total cpu time spent up to now is      133.6 secs

     total energy              =    -339.53637601 Ry
     estimated scf accuracy    <          1.9E-09 Ry

     total magnetization       =     0.65 Bohr mag/cell
     absolute magnetization    =     0.70 Bohr mag/cell

     iteration # 37     ecut=    60.00 Ry     beta= 0.70
     Davidson diagonalization with overlap
     ethr =  1.05E-11,  avg # of iterations =  1.6

     total cpu time spent up to now is      135.0 secs

     total energy              =    -339.53637601 Ry
     estimated scf accuracy    <       0.00000001 Ry

     total magnetization       =     0.65 Bohr mag/cell
     absolute magnetization    =     0.70 Bohr mag/cell

     iteration # 38     ecut=    60.00 Ry     beta= 0.70
     Davidson diagonalization with overlap
     ethr =  1.05E-11,  avg # of iterations =  2.0

     total cpu time spent up to now is      136.5 secs

     total energy              =    -339.53637601 Ry
     estimated scf accuracy    <          4.9E-09 Ry

     total magnetization       =     0.65 Bohr mag/cell
     absolute magnetization    =     0.70 Bohr mag/cell

     iteration # 39     ecut=    60.00 Ry     beta= 0.70
     Davidson diagonalization with overlap
     ethr =  1.05E-11,  avg # of iterations =  1.5

     total cpu time spent up to now is      137.9 secs

     total energy              =    -339.53637601 Ry
     estimated scf accuracy    <          1.3E-09 Ry

     total magnetization       =     0.65 Bohr mag/cell
     absolute magnetization    =     0.70 Bohr mag/cell

     iteration # 40     ecut=    60.00 Ry     beta= 0.70
     Davidson diagonalization with overlap
     ethr =  7.43E-12,  avg # of iterations =  1.0

     total cpu time spent up to now is      139.1 secs

     total energy              =    -339.53637601 Ry
     estimated scf accuracy    <          1.5E-09 Ry

     total magnetization       =     0.65 Bohr mag/cell
     absolute magnetization    =     0.70 Bohr mag/cell

     iteration # 41     ecut=    60.00 Ry     beta= 0.70
     Davidson diagonalization with overlap
     ethr =  7.43E-12,  avg # of iterations =  1.0

     total cpu time spent up to now is      140.3 secs

     total energy              =    -339.53637601 Ry
     estimated scf accuracy    <          1.6E-09 Ry

     total magnetization       =     0.65 Bohr mag/cell
     absolute magnetization    =     0.70 Bohr mag/cell

     iteration # 42     ecut=    60.00 Ry     beta= 0.70
     Davidson diagonalization with overlap
     ethr =  7.43E-12,  avg # of iterations =  1.0

     total cpu time spent up to now is      141.6 secs

     total energy              =    -339.53637601 Ry
     estimated scf accuracy    <          1.2E-09 Ry

     total magnetization       =     0.65 Bohr mag/cell
     absolute magnetization    =     0.70 Bohr mag/cell

     iteration # 43     ecut=    60.00 Ry     beta= 0.70
     Davidson diagonalization with overlap
     ethr =  6.65E-12,  avg # of iterations =  1.5

     total cpu time spent up to now is      143.0 secs

     total energy              =    -339.53637601 Ry
     estimated scf accuracy    <          1.2E-09 Ry

     total magnetization       =     0.65 Bohr mag/cell
     absolute magnetization    =     0.70 Bohr mag/cell

     iteration # 44     ecut=    60.00 Ry     beta= 0.70
     Davidson diagonalization with overlap
     ethr =  6.48E-12,  avg # of iterations =  1.0

     Magnetic moment per site  (integrated on atomic sphere of radius R)
     atom   1 (R=0.413)  charge= 15.5681  magn=  0.6596

     total cpu time spent up to now is      144.2 secs

     End of self-consistent calculation

     Number of k-points >= 100: set verbosity='high' to print the bands.

     the Fermi energy is    15.2720 ev

!    total energy              =    -339.53637601 Ry
     estimated scf accuracy    <          5.2E-11 Ry
     smearing contrib. (-TS)   =       0.00006786 Ry
     internal energy E=F+TS    =    -339.53644387 Ry

     The total energy is F=E-TS. E is the sum of the following terms:
     one-electron contribution =    -210.60405794 Ry
     hartree contribution      =     115.05304370 Ry
     xc contribution           =     -34.32714434 Ry
     ewald contribution        =    -209.65828529 Ry

     total magnetization       =     0.65 Bohr mag/cell
     absolute magnetization    =     0.70 Bohr mag/cell

     convergence has been achieved in  44 iterations

     Forces acting on atoms (cartesian axes, Ry/au):

     atom    1 type  1   force =     0.00000000    0.00000000    0.00000000

     Total force =     0.000000     Total SCF correction =     0.000003


     Computing stress (Cartesian axis) and pressure

          total   stress  (Ry/bohr**3)                   (kbar)     P=      -49.31
  -0.00008653   0.00000000   0.00000002          -12.73        0.00        0.00
   0.00000000  -0.00016876  -0.00000001            0.00      -24.82       -0.00
   0.00000002  -0.00000001  -0.00075025            0.00       -0.00     -110.37

     Energy error            =      1.0E-02 Ry
     Gradient error          =      0.0E+00 Ry/Bohr
     Cell gradient error     =      1.1E+02 kbar

     number of scf cycles    =   3
     number of bfgs steps    =   2

     enthalpy           old  =    -339.5263724981 Ry
     enthalpy           new  =    -339.5363760080 Ry

     CASE: enthalpy          _new < enthalpy          _old

     new trust radius        =       0.0602898672 bohr
     new conv_thr            =       0.0000000010 Ry

     new unit-cell volume =     80.40844 a.u.^3 (    11.91530 Ang^3 )
     density =      8.17962 g/cm^3

CELL_PARAMETERS (bohr)
   4.163425506  -0.000001093  -0.000018526
  -0.000000686   4.381073283  -0.000035557
  -0.000021894  -0.000037428   4.408291719

ATOMIC_POSITIONS (crystal)
Ni            0.0000000000        0.0000000000        0.0000000000



     Writing config-only to output data dir ./out/pwscf.save/
     NEW-OLD atomic charge density approx. for the potential

     Check: negative core charge=   -0.000002
     extrapolated charge   17.25412, renormalised to   18.00000
     Generating pointlists ...

     total cpu time spent up to now is      144.7 secs

     Self-consistent Calculation

     iteration #  1     ecut=    60.00 Ry     beta= 0.70
     Davidson diagonalization with overlap
     ethr =  1.00E-06,  avg # of iterations =  7.7

     total cpu time spent up to now is      148.8 secs

     total energy              =    -337.11217529 Ry
     estimated scf accuracy    <       2.91008389 Ry

     total magnetization       =     0.07 Bohr mag/cell
     absolute magnetization    =     0.14 Bohr mag/cell

     iteration #  2     ecut=    60.00 Ry     beta= 0.70
     Davidson diagonalization with overlap
     ethr =  1.00E-02,  avg # of iterations =  3.0

     total cpu time spent up to now is      150.8 secs

     total energy              =    -339.18222069 Ry
     estimated scf accuracy    <      10.92457428 Ry

     total magnetization       =     0.24 Bohr mag/cell
     absolute magnetization    =     0.25 Bohr mag/cell

     iteration #  3     ecut=    60.00 Ry     beta= 0.70
     Davidson diagonalization with overlap
     ethr =  1.00E-02,  avg # of iterations =  2.0

     total cpu time spent up to now is      152.3 secs

     total energy              =    -339.49170302 Ry
     estimated scf accuracy    <       1.68637737 Ry

     total magnetization       =     0.30 Bohr mag/cell
     absolute magnetization    =     0.34 Bohr mag/cell

     iteration #  4     ecut=    60.00 Ry     beta= 0.70
     Davidson diagonalization with overlap
     ethr =  9.37E-03,  avg # of iterations =  1.2

     total cpu time spent up to now is      153.6 secs

     total energy              =    -339.52987068 Ry
     estimated scf accuracy    <       1.29669604 Ry

     total magnetization       =     0.42 Bohr mag/cell
     absolute magnetization    =     1.60 Bohr mag/cell

     iteration #  5     ecut=    60.00 Ry     beta= 0.70
     Davidson diagonalization with overlap
     ethr =  7.20E-03,  avg # of iterations =  1.0

     total cpu time spent up to now is      154.8 secs

     total energy              =    -339.54915508 Ry
     estimated scf accuracy    <       0.13907949 Ry

     total magnetization       =     0.41 Bohr mag/cell
     absolute magnetization    =     0.44 Bohr mag/cell

     iteration #  6     ecut=    60.00 Ry     beta= 0.70
     Davidson diagonalization with overlap
     ethr =  7.73E-04,  avg # of iterations =  1.0

     total cpu time spent up to now is      156.0 secs

     total energy              =    -339.55163715 Ry
     estimated scf accuracy    <       0.10579389 Ry

     total magnetization       =     0.48 Bohr mag/cell
     absolute magnetization    =     0.55 Bohr mag/cell

     iteration #  7     ecut=    60.00 Ry     beta= 0.70
     Davidson diagonalization with overlap
     ethr =  5.88E-04,  avg # of iterations =  1.0

     total cpu time spent up to now is      157.2 secs

     total energy              =    -339.55021739 Ry
     estimated scf accuracy    <       0.11981313 Ry

     total magnetization       =     0.48 Bohr mag/cell
     absolute magnetization    =     0.60 Bohr mag/cell

     iteration #  8     ecut=    60.00 Ry     beta= 0.70
     Davidson diagonalization with overlap
     ethr =  5.88E-04,  avg # of iterations =  1.0

     total cpu time spent up to now is      158.4 secs

     total energy              =    -339.55096606 Ry
     estimated scf accuracy    <       0.08251927 Ry

     total magnetization       =     0.49 Bohr mag/cell
     absolute magnetization    =     0.51 Bohr mag/cell

     iteration #  9     ecut=    60.00 Ry     beta= 0.70
     Davidson diagonalization with overlap
     ethr =  4.58E-04,  avg # of iterations =  1.0

     total cpu time spent up to now is      159.7 secs

     total energy              =    -339.55126054 Ry
     estimated scf accuracy    <       0.08106546 Ry

     total magnetization       =     0.55 Bohr mag/cell
     absolute magnetization    =     0.58 Bohr mag/cell

     iteration # 10     ecut=    60.00 Ry     beta= 0.70
     Davidson diagonalization with overlap
     ethr =  4.50E-04,  avg # of iterations =  1.0

     total cpu time spent up to now is      160.9 secs

     total energy              =    -339.52171948 Ry
     estimated scf accuracy    <       0.08268018 Ry

     total magnetization       =     0.56 Bohr mag/cell
     absolute magnetization    =     0.59 Bohr mag/cell

     iteration # 11     ecut=    60.00 Ry     beta= 0.70
     Davidson diagonalization with overlap
     ethr =  4.50E-04,  avg # of iterations =  2.0

     total cpu time spent up to now is      162.3 secs

     total energy              =    -339.53692534 Ry
     estimated scf accuracy    <       0.00279496 Ry

     total magnetization       =     0.54 Bohr mag/cell
     absolute magnetization    =     0.56 Bohr mag/cell

     iteration # 12     ecut=    60.00 Ry     beta= 0.70
     Davidson diagonalization with overlap
     ethr =  1.55E-05,  avg # of iterations =  2.0

     total cpu time spent up to now is      163.8 secs

     total energy              =    -339.53715845 Ry
     estimated scf accuracy    <       0.00196510 Ry

     total magnetization       =     0.52 Bohr mag/cell
     absolute magnetization    =     0.55 Bohr mag/cell

     iteration # 13     ecut=    60.00 Ry     beta= 0.70
     Davidson diagonalization with overlap
     ethr =  1.09E-05,  avg # of iterations =  1.0

     total cpu time spent up to now is      165.0 secs

     total energy              =    -339.53733104 Ry
     estimated scf accuracy    <       0.00269364 Ry

     total magnetization       =     0.51 Bohr mag/cell
     absolute magnetization    =     0.53 Bohr mag/cell

     iteration # 14     ecut=    60.00 Ry     beta= 0.70
     Davidson diagonalization with overlap
     ethr =  1.09E-05,  avg # of iterations =  1.1

     total cpu time spent up to now is      166.2 secs

     total energy              =    -339.53712692 Ry
     estimated scf accuracy    <       0.00614690 Ry

     total magnetization       =     0.54 Bohr mag/cell
     absolute magnetization    =     0.57 Bohr mag/cell

     iteration # 15     ecut=    60.00 Ry     beta= 0.70
     Davidson diagonalization with overlap
     ethr =  1.09E-05,  avg # of iterations =  2.0

     total cpu time spent up to now is      167.7 secs

     total energy              =    -339.53753535 Ry
     estimated scf accuracy    <       0.00293095 Ry

     total magnetization       =     0.59 Bohr mag/cell
     absolute magnetization    =     0.63 Bohr mag/cell

     iteration # 16     ecut=    60.00 Ry     beta= 0.70
     Davidson diagonalization with overlap
     ethr =  1.09E-05,  avg # of iterations =  1.0

     total cpu time spent up to now is      169.0 secs

     total energy              =    -339.53754049 Ry
     estimated scf accuracy    <       0.00110123 Ry

     total magnetization       =     0.59 Bohr mag/cell
     absolute magnetization    =     0.63 Bohr mag/cell

     iteration # 17     ecut=    60.00 Ry     beta= 0.70
     Davidson diagonalization with overlap
     ethr =  6.12E-06,  avg # of iterations =  2.0

     total cpu time spent up to now is      170.5 secs

     total energy              =    -339.53689756 Ry
     estimated scf accuracy    <       0.03377518 Ry

     total magnetization       =     0.60 Bohr mag/cell
     absolute magnetization    =     0.71 Bohr mag/cell

     iteration # 18     ecut=    60.00 Ry     beta= 0.70
     Davidson diagonalization with overlap
     ethr =  6.12E-06,  avg # of iterations =  2.0

     total cpu time spent up to now is      172.0 secs

     total energy              =    -339.53756216 Ry
     estimated scf accuracy    <       0.00224022 Ry

     total magnetization       =     0.61 Bohr mag/cell
     absolute magnetization    =     0.65 Bohr mag/cell

     iteration # 19     ecut=    60.00 Ry     beta= 0.70
     Davidson diagonalization with overlap
     ethr =  6.12E-06,  avg # of iterations =  2.0

     total cpu time spent up to now is      173.4 secs

     total energy              =    -339.53776122 Ry
     estimated scf accuracy    <       0.01889755 Ry

     total magnetization       =     0.61 Bohr mag/cell
     absolute magnetization    =     0.68 Bohr mag/cell

     iteration # 20     ecut=    60.00 Ry     beta= 0.70
     Davidson diagonalization with overlap
     ethr =  6.12E-06,  avg # of iterations =  1.0

     total cpu time spent up to now is      174.7 secs

     total energy              =    -339.53719319 Ry
     estimated scf accuracy    <       0.01799904 Ry

     total magnetization       =     0.61 Bohr mag/cell
     absolute magnetization    =     0.68 Bohr mag/cell

     iteration # 21     ecut=    60.00 Ry     beta= 0.70
     Davidson diagonalization with overlap
     ethr =  6.12E-06,  avg # of iterations =  2.0

     total cpu time spent up to now is      176.2 secs

     total energy              =    -339.53755601 Ry
     estimated scf accuracy    <       0.00017604 Ry

     total magnetization       =     0.62 Bohr mag/cell
     absolute magnetization    =     0.65 Bohr mag/cell

     iteration # 22     ecut=    60.00 Ry     beta= 0.70
     Davidson diagonalization with overlap
     ethr =  9.78E-07,  avg # of iterations =  1.0

     total cpu time spent up to now is      177.4 secs

     total energy              =    -339.53756628 Ry
     estimated scf accuracy    <       0.00009809 Ry

     total magnetization       =     0.62 Bohr mag/cell
     absolute magnetization    =     0.66 Bohr mag/cell

     iteration # 23     ecut=    60.00 Ry     beta= 0.70
     Davidson diagonalization with overlap
     ethr =  5.45E-07,  avg # of iterations =  1.0

     total cpu time spent up to now is      178.6 secs

     total energy              =    -339.53756813 Ry
     estimated scf accuracy    <       0.00002767 Ry

     total magnetization       =     0.62 Bohr mag/cell
     absolute magnetization    =     0.65 Bohr mag/cell

     iteration # 24     ecut=    60.00 Ry     beta= 0.70
     Davidson diagonalization with overlap
     ethr =  1.54E-07,  avg # of iterations =  1.0

     total cpu time spent up to now is      179.8 secs

     total energy              =    -339.53756944 Ry
     estimated scf accuracy    <       0.00000245 Ry

     total magnetization       =     0.62 Bohr mag/cell
     absolute magnetization    =     0.65 Bohr mag/cell

     iteration # 25     ecut=    60.00 Ry     beta= 0.70
     Davidson diagonalization with overlap
     ethr =  1.36E-08,  avg # of iterations =  1.0

     total cpu time spent up to now is      181.0 secs

     total energy              =    -339.53756948 Ry
     estimated scf accuracy    <       0.00000083 Ry

     total magnetization       =     0.62 Bohr mag/cell
     absolute magnetization    =     0.65 Bohr mag/cell

     iteration # 26     ecut=    60.00 Ry     beta= 0.70
     Davidson diagonalization with overlap
     ethr =  4.61E-09,  avg # of iterations =  1.5

     total cpu time spent up to now is      182.4 secs

     total energy              =    -339.53756951 Ry
     estimated scf accuracy    <       0.00000029 Ry

     total magnetization       =     0.62 Bohr mag/cell
     absolute magnetization    =     0.65 Bohr mag/cell

     iteration # 27     ecut=    60.00 Ry     beta= 0.70
     Davidson diagonalization with overlap
     ethr =  1.61E-09,  avg # of iterations =  1.0

     total cpu time spent up to now is      183.6 secs

     total energy              =    -339.53756949 Ry
     estimated scf accuracy    <       0.00000075 Ry

     total magnetization       =     0.62 Bohr mag/cell
     absolute magnetization    =     0.65 Bohr mag/cell

     iteration # 28     ecut=    60.00 Ry     beta= 0.70
     Davidson diagonalization with overlap
     ethr =  1.61E-09,  avg # of iterations =  1.0

     total cpu time spent up to now is      184.8 secs

     total energy              =    -339.53756950 Ry
     estimated scf accuracy    <       0.00000048 Ry

     total magnetization       =     0.62 Bohr mag/cell
     absolute magnetization    =     0.65 Bohr mag/cell

     iteration # 29     ecut=    60.00 Ry     beta= 0.70
     Davidson diagonalization with overlap
     ethr =  1.61E-09,  avg # of iterations =  1.0

     total cpu time spent up to now is      186.0 secs

     total energy              =    -339.53756950 Ry
     estimated scf accuracy    <       0.00000069 Ry

     total magnetization       =     0.62 Bohr mag/cell
     absolute magnetization    =     0.65 Bohr mag/cell

     iteration # 30     ecut=    60.00 Ry     beta= 0.70
     Davidson diagonalization with overlap
     ethr =  1.61E-09,  avg # of iterations =  1.0

     total cpu time spent up to now is      187.3 secs

     total energy              =    -339.53756950 Ry
     estimated scf accuracy    <       0.00000018 Ry

     total magnetization       =     0.62 Bohr mag/cell
     absolute magnetization    =     0.65 Bohr mag/cell

     iteration # 31     ecut=    60.00 Ry     beta= 0.70
     Davidson diagonalization with overlap
     ethr =  1.03E-09,  avg # of iterations =  1.0

     total cpu time spent up to now is      188.5 secs

     total energy              =    -339.53756950 Ry
     estimated scf accuracy    <       0.00000005 Ry

     total magnetization       =     0.62 Bohr mag/cell
     absolute magnetization    =     0.65 Bohr mag/cell

     iteration # 32     ecut=    60.00 Ry     beta= 0.70
     Davidson diagonalization with overlap
     ethr =  3.04E-10,  avg # of iterations =  1.0

     total cpu time spent up to now is      189.7 secs

     total energy              =    -339.53756950 Ry
     estimated scf accuracy    <       0.00000001 Ry

     total magnetization       =     0.62 Bohr mag/cell
     absolute magnetization    =     0.65 Bohr mag/cell

     iteration # 33     ecut=    60.00 Ry     beta= 0.70
     Davidson diagonalization with overlap
     ethr =  5.82E-11,  avg # of iterations =  1.0

     total cpu time spent up to now is      190.9 secs

     total energy              =    -339.53756950 Ry
     estimated scf accuracy    <          2.3E-09 Ry

     total magnetization       =     0.62 Bohr mag/cell
     absolute magnetization    =     0.65 Bohr mag/cell

     iteration # 34     ecut=    60.00 Ry     beta= 0.70
     Davidson diagonalization with overlap
     ethr =  1.26E-11,  avg # of iterations =  1.5

     total cpu time spent up to now is      192.4 secs

     total energy              =    -339.53756950 Ry
     estimated scf accuracy    <          6.1E-09 Ry

     total magnetization       =     0.62 Bohr mag/cell
     absolute magnetization    =     0.65 Bohr mag/cell

     iteration # 35     ecut=    60.00 Ry     beta= 0.70
     Davidson diagonalization with overlap
     ethr =  1.26E-11,  avg # of iterations =  1.0

     total cpu time spent up to now is      193.6 secs

     total energy              =    -339.53756950 Ry
     estimated scf accuracy    <          7.6E-09 Ry

     total magnetization       =     0.62 Bohr mag/cell
     absolute magnetization    =     0.65 Bohr mag/cell

     iteration # 36     ecut=    60.00 Ry     beta= 0.70
     Davidson diagonalization with overlap
     ethr =  1.26E-11,  avg # of iterations =  1.2

     total cpu time spent up to now is      194.9 secs

     total energy              =    -339.53756950 Ry
     estimated scf accuracy    <       0.00000002 Ry

     total magnetization       =     0.62 Bohr mag/cell
     absolute magnetization    =     0.65 Bohr mag/cell

     iteration # 37     ecut=    60.00 Ry     beta= 0.70
     Davidson diagonalization with overlap
     ethr =  1.26E-11,  avg # of iterations =  2.0

     Magnetic moment per site  (integrated on atomic sphere of radius R)
     atom   1 (R=0.413)  charge= 15.5804  magn=  0.6215

     total cpu time spent up to now is      196.3 secs

     End of self-consistent calculation

     Number of k-points >= 100: set verbosity='high' to print the bands.

     the Fermi energy is    16.0800 ev

!    total energy              =    -339.53756950 Ry
     estimated scf accuracy    <          7.8E-10 Ry
     smearing contrib. (-TS)   =       0.00010892 Ry
     internal energy E=F+TS    =    -339.53767842 Ry

     The total energy is F=E-TS. E is the sum of the following terms:
     one-electron contribution =    -205.36560455 Ry
     hartree contribution      =     112.94866937 Ry
     xc contribution           =     -34.34773519 Ry
     ewald contribution        =    -212.77300805 Ry

     total magnetization       =     0.62 Bohr mag/cell
     absolute magnetization    =     0.65 Bohr mag/cell

     convergence has been achieved in  37 iterations

     Forces acting on atoms (cartesian axes, Ry/au):

     atom    1 type  1   force =     0.00000000    0.00000000    0.00000000

     Total force =     0.000000     Total SCF correction =     0.000025


     Computing stress (Cartesian axis) and pressure

          total   stress  (Ry/bohr**3)                   (kbar)     P=        9.28
   0.00015416   0.00000000   0.00000001           22.68        0.00        0.00
   0.00000000   0.00007235  -0.00000003            0.00       10.64       -0.00
   0.00000001  -0.00000003  -0.00003721            0.00       -0.00       -5.47

     Energy error            =      1.2E-03 Ry
     Gradient error          =      0.0E+00 Ry/Bohr
     Cell gradient error     =      2.3E+01 kbar

     number of scf cycles    =   4
     number of bfgs steps    =   3

     enthalpy           old  =    -339.5363760080 Ry
     enthalpy           new  =    -339.5375695044 Ry

     CASE: enthalpy          _new < enthalpy          _old

     new trust radius        =       0.0038478436 bohr
     new conv_thr            =       0.0000000010 Ry

     new unit-cell volume =     80.46455 a.u.^3 (    11.92362 Ang^3 )
     density =      8.17392 g/cm^3

CELL_PARAMETERS (bohr)
   4.170279269  -0.000000885  -0.000017383
  -0.000000403   4.386336398  -0.000039073
  -0.000019987  -0.000041403   4.398833554

ATOMIC_POSITIONS (crystal)
Ni            0.0000000000        0.0000000000        0.0000000000



     Writing config-only to output data dir ./out/pwscf.save/
     NEW-OLD atomic charge density approx. for the potential

     Check: negative core charge=   -0.000002
     extrapolated charge   18.01255, renormalised to   18.00000
     Generating pointlists ...

     total cpu time spent up to now is      196.8 secs

     Self-consistent Calculation

     iteration #  1     ecut=    60.00 Ry     beta= 0.70
     Davidson diagonalization with overlap
     ethr =  1.00E-06,  avg # of iterations =  3.1

     total cpu time spent up to now is      199.0 secs

     total energy              =    -339.53676170 Ry
     estimated scf accuracy    <       0.00101775 Ry

     total magnetization       =     0.63 Bohr mag/cell
     absolute magnetization    =     0.67 Bohr mag/cell

     iteration #  2     ecut=    60.00 Ry     beta= 0.70
     Davidson diagonalization with overlap
     ethr =  5.65E-06,  avg # of iterations =  2.8

     total cpu time spent up to now is      200.9 secs

     total energy              =    -339.53773011 Ry
     estimated scf accuracy    <       0.00552534 Ry

     total magnetization       =     0.60 Bohr mag/cell
     absolute magnetization    =     0.64 Bohr mag/cell

     iteration #  3     ecut=    60.00 Ry     beta= 0.70
     Davidson diagonalization with overlap
     ethr =  5.65E-06,  avg # of iterations =  2.0

     total cpu time spent up to now is      202.4 secs

     total energy              =    -339.53564180 Ry
     estimated scf accuracy    <       0.09850274 Ry

     total magnetization       =     0.61 Bohr mag/cell
     absolute magnetization    =     0.85 Bohr mag/cell

     iteration #  4     ecut=    60.00 Ry     beta= 0.70
     Davidson diagonalization with overlap
     ethr =  5.65E-06,  avg # of iterations =  2.0

     total cpu time spent up to now is      204.0 secs

     total energy              =    -339.53761488 Ry
     estimated scf accuracy    <       0.00058624 Ry

     total magnetization       =     0.61 Bohr mag/cell
     absolute magnetization    =     0.65 Bohr mag/cell

     iteration #  5     ecut=    60.00 Ry     beta= 0.70
     Davidson diagonalization with overlap
     ethr =  3.26E-06,  avg # of iterations =  1.0

     total cpu time spent up to now is      205.2 secs

     total energy              =    -339.53765243 Ry
     estimated scf accuracy    <       0.00049663 Ry

     total magnetization       =     0.62 Bohr mag/cell
     absolute magnetization    =     0.65 Bohr mag/cell

     iteration #  6     ecut=    60.00 Ry     beta= 0.70
     Davidson diagonalization with overlap
     ethr =  2.76E-06,  avg # of iterations =  1.0

     total cpu time spent up to now is      206.5 secs

     total energy              =    -339.53757722 Ry
     estimated scf accuracy    <       0.00044445 Ry

     total magnetization       =     0.62 Bohr mag/cell
     absolute magnetization    =     0.65 Bohr mag/cell

     iteration #  7     ecut=    60.00 Ry     beta= 0.70
     Davidson diagonalization with overlap
     ethr =  2.47E-06,  avg # of iterations =  1.0

     total cpu time spent up to now is      207.7 secs

     total energy              =    -339.53759513 Ry
     estimated scf accuracy    <       0.00007920 Ry

     total magnetization       =     0.62 Bohr mag/cell
     absolute magnetization    =     0.65 Bohr mag/cell

     iteration #  8     ecut=    60.00 Ry     beta= 0.70
     Davidson diagonalization with overlap
     ethr =  4.40E-07,  avg # of iterations =  1.0

     total cpu time spent up to now is      208.9 secs

     total energy              =    -339.53759665 Ry
     estimated scf accuracy    <       0.00004518 Ry

     total magnetization       =     0.62 Bohr mag/cell
     absolute magnetization    =     0.65 Bohr mag/cell

     iteration #  9     ecut=    60.00 Ry     beta= 0.70
     Davidson diagonalization with overlap
     ethr =  2.51E-07,  avg # of iterations =  1.0

     total cpu time spent up to now is      210.1 secs

     total energy              =    -339.53759544 Ry
     estimated scf accuracy    <       0.00006625 Ry

     total magnetization       =     0.62 Bohr mag/cell
     absolute magnetization    =     0.65 Bohr mag/cell

     iteration # 10     ecut=    60.00 Ry     beta= 0.70
     Davidson diagonalization with overlap
     ethr =  2.51E-07,  avg # of iterations =  1.0

     total cpu time spent up to now is      211.3 secs

     total energy              =    -339.53758455 Ry
     estimated scf accuracy    <       0.00003921 Ry

     total magnetization       =     0.62 Bohr mag/cell
     absolute magnetization    =     0.65 Bohr mag/cell

     iteration # 11     ecut=    60.00 Ry     beta= 0.70
     Davidson diagonalization with overlap
     ethr =  2.18E-07,  avg # of iterations =  1.3

     total cpu time spent up to now is      212.6 secs

     total energy              =    -339.53758890 Ry
     estimated scf accuracy    <       0.00000690 Ry

     total magnetization       =     0.62 Bohr mag/cell
     absolute magnetization    =     0.65 Bohr mag/cell

     iteration # 12     ecut=    60.00 Ry     beta= 0.70
     Davidson diagonalization with overlap
     ethr =  3.83E-08,  avg # of iterations =  1.2

     total cpu time spent up to now is      213.9 secs

     total energy              =    -339.53758920 Ry
     estimated scf accuracy    <       0.00000021 Ry

     total magnetization       =     0.62 Bohr mag/cell
     absolute magnetization    =     0.65 Bohr mag/cell

     iteration # 13     ecut=    60.00 Ry     beta= 0.70
     Davidson diagonalization with overlap
     ethr =  1.19E-09,  avg # of iterations =  2.2

     total cpu time spent up to now is      215.4 secs

     total energy              =    -339.53758920 Ry
     estimated scf accuracy    <       0.00000072 Ry

     total magnetization       =     0.62 Bohr mag/cell
     absolute magnetization    =     0.65 Bohr mag/cell

     iteration # 14     ecut=    60.00 Ry     beta= 0.70
     Davidson diagonalization with overlap
     ethr =  1.19E-09,  avg # of iterations =  1.5

     total cpu time spent up to now is      216.7 secs

     total energy              =    -339.53758920 Ry
     estimated scf accuracy    <       0.00000015 Ry

     total magnetization       =     0.62 Bohr mag/cell
     absolute magnetization    =     0.65 Bohr mag/cell

     iteration # 15     ecut=    60.00 Ry     beta= 0.70
     Davidson diagonalization with overlap
     ethr =  8.42E-10,  avg # of iterations =  1.5

     total cpu time spent up to now is      218.1 secs

     total energy              =    -339.53758922 Ry
     estimated scf accuracy    <       0.00000006 Ry

     total magnetization       =     0.62 Bohr mag/cell
     absolute magnetization    =     0.65 Bohr mag/cell

     iteration # 16     ecut=    60.00 Ry     beta= 0.70
     Davidson diagonalization with overlap
     ethr =  3.10E-10,  avg # of iterations =  1.0

     total cpu time spent up to now is      219.4 secs

     total energy              =    -339.53758922 Ry
     estimated scf accuracy    <       0.00000011 Ry

     total magnetization       =     0.62 Bohr mag/cell
     absolute magnetization    =     0.65 Bohr mag/cell

     iteration # 17     ecut=    60.00 Ry     beta= 0.70
     Davidson diagonalization with overlap
     ethr =  3.10E-10,  avg # of iterations =  1.0

     total cpu time spent up to now is      220.6 secs

     total energy              =    -339.53758921 Ry
     estimated scf accuracy    <       0.00000008 Ry

     total magnetization       =     0.62 Bohr mag/cell
     absolute magnetization    =     0.65 Bohr mag/cell

     iteration # 18     ecut=    60.00 Ry     beta= 0.70
     Davidson diagonalization with overlap
     ethr =  3.10E-10,  avg # of iterations =  1.0

     total cpu time spent up to now is      221.9 secs

     total energy              =    -339.53758921 Ry
     estimated scf accuracy    <       0.00000004 Ry

     total magnetization       =     0.62 Bohr mag/cell
     absolute magnetization    =     0.65 Bohr mag/cell

     iteration # 19     ecut=    60.00 Ry     beta= 0.70
[...]
Begin final coordinates
     new unit-cell volume =     80.55791 a.u.^3 (    11.93745 Ang^3 )
     density =      8.16445 g/cm^3

CELL_PARAMETERS (bohr)
   4.171596051  -0.000000579  -0.000015197
   0.000000014   4.389646911  -0.000046684
  -0.000016484  -0.000050284   4.399226705

ATOMIC_POSITIONS (crystal)
Ni            0.0000000000        0.0000000000        0.0000000000
End final coordinates



     Writing config-only to output data dir ./out/pwscf.save/

     Final scf calculation at the relaxed structure.
     The G-vectors are recalculated for the final unit cell
     Results may differ from those at the preceding step.

     Parallelization info
     --------------------
     sticks:   dense  smooth     PW     G-vecs:    dense   smooth      PW
     Min          58      28      9                 1191      418      79
     Max          60      29     10                 1192      421      82
     Sum         703     345    115                14301     5041     971

     Using Slab Decomposition



     bravais-lattice index     =            0
     lattice parameter (alat)  =       3.7795  a.u.
     unit-cell volume          =      80.5579 (a.u.)^3
     number of atoms/cell      =            1
     number of atomic types    =            1
     number of electrons       =        18.00
     number of Kohn-Sham states=           13
     kinetic-energy cutoff     =      60.0000  Ry
     charge density cutoff     =     480.0000  Ry
     scf convergence threshold =      1.0E-09
     mixing beta               =       0.7000
     number of iterations used =            8  TF        mixing
     press convergence thresh. =      5.0E-01
     Exchange-correlation= PBE
                           (   1   4   3   4   0   0   0)

     celldm(1)=   3.779452  celldm(2)=   0.000000  celldm(3)=   0.000000
     celldm(4)=   0.000000  celldm(5)=   0.000000  celldm(6)=   0.000000

     crystal axes: (cart. coord. in units of alat)
               a(1) = (   1.103757  -0.000000  -0.000004 )  
               a(2) = (   0.000000   1.161451  -0.000012 )  
               a(3) = (  -0.000004  -0.000013   1.163985 )  

     reciprocal axes: (cart. coord. in units 2 pi/alat)
               b(1) = (  0.905997 -0.000000  0.000003 )  
               b(2) = (  0.000000  0.860992  0.000010 )  
               b(3) = (  0.000003  0.000009  0.859117 )  


     PseudoPot. # 1 for Ni read from file:
     /home/jmgoff/work/automation/qe_pseudos/Ni.upf
     MD5 check sum: caf20d35bef94d268ef04de15446df97
     Pseudo is Ultrasoft + core correction, Zval = 18.0
     Generated using 'atomic' code by A. Dal Corso  v.7.1
     Using radial grid of 1195 points,  6 beta functions with: 
                l(1) =   0
                l(2) =   0
                l(3) =   1
                l(4) =   1
                l(5) =   2
                l(6) =   2
     Q(r) pseudized with 0 coefficients 


     atomic species   valence    mass     pseudopotential
        Ni            18.00    58.69340     Ni( 1.00)

     Starting magnetic structure 
     atomic species   magnetization
        Ni           0.040

     No symmetry found



   Cartesian axes

     site n.     atom                  positions (alat units)
         1           Ni  tau(   1) = (   0.0000000   0.0000000   0.0000000  )

     number of k points=   397  Marzari-Vanderbilt smearing, width (Ry)=  0.0100

     Number of k-points >= 100: set verbosity='high' to print them.

     Dense  grid:    14301 G-vectors     FFT dimensions: (  30,  32,  32)

     Smooth grid:     5041 G-vectors     FFT dimensions: (  24,  24,  24)

     Estimated max dynamical RAM per process >      10.66 MB

     Estimated total dynamical RAM >     248.78 MB

     Check: negative core charge=   -0.000001
     Generating pointlists ...

     Initial potential from superposition of free atoms

     starting charge      17.9998, renormalised to      18.0000
     Starting wfcs are   10 randomized atomic wfcs +    3 random wfcs

     total cpu time spent up to now is      282.0 secs

     Self-consistent Calculation

     iteration #  1     ecut=    60.00 Ry     beta= 0.70
     Davidson diagonalization with overlap
     c_bands:  1 eigenvalues not converged
     c_bands:  1 eigenvalues not converged
     c_bands:  1 eigenvalues not converged
     c_bands:  1 eigenvalues not converged
     c_bands:  1 eigenvalues not converged
     c_bands:  1 eigenvalues not converged
     c_bands:  1 eigenvalues not converged
     c_bands:  1 eigenvalues not converged
     c_bands:  1 eigenvalues not converged
     c_bands:  1 eigenvalues not converged
     c_bands:  1 eigenvalues not converged
     ethr =  1.00E-06,  avg # of iterations = 10.9

     total cpu time spent up to now is      286.3 secs

     total energy              =    -339.53013804 Ry
     estimated scf accuracy    <       0.03385677 Ry

     total magnetization       =     0.56 Bohr mag/cell
     absolute magnetization    =     0.57 Bohr mag/cell

     iteration #  2     ecut=    60.00 Ry     beta= 0.70
     Davidson diagonalization with overlap
     ethr =  1.88E-04,  avg # of iterations =  2.0

     total cpu time spent up to now is      287.7 secs

     total energy              =    -339.53627314 Ry
     estimated scf accuracy    <       0.02690371 Ry

     total magnetization       =     0.64 Bohr mag/cell
     absolute magnetization    =     0.65 Bohr mag/cell

     iteration #  3     ecut=    60.00 Ry     beta= 0.70
     Davidson diagonalization with overlap
     ethr =  1.49E-04,  avg # of iterations =  1.5

     total cpu time spent up to now is      288.9 secs

     total energy              =    -339.54077117 Ry
     estimated scf accuracy    <       0.00095022 Ry

     total magnetization       =     0.60 Bohr mag/cell
     absolute magnetization    =     0.62 Bohr mag/cell

     iteration #  4     ecut=    60.00 Ry     beta= 0.70
     Davidson diagonalization with overlap
     ethr =  5.28E-06,  avg # of iterations =  2.0

     total cpu time spent up to now is      290.3 secs

     total energy              =    -339.54089351 Ry
     estimated scf accuracy    <       0.00680839 Ry

     total magnetization       =     0.61 Bohr mag/cell
     absolute magnetization    =     0.65 Bohr mag/cell

     iteration #  5     ecut=    60.00 Ry     beta= 0.70
     Davidson diagonalization with overlap
     ethr =  5.28E-06,  avg # of iterations =  1.0

     total cpu time spent up to now is      291.5 secs

     total energy              =    -339.54082453 Ry
     estimated scf accuracy    <       0.00222438 Ry

     total magnetization       =     0.61 Bohr mag/cell
     absolute magnetization    =     0.64 Bohr mag/cell

     iteration #  6     ecut=    60.00 Ry     beta= 0.70
     Davidson diagonalization with overlap
     ethr =  5.28E-06,  avg # of iterations =  1.5

     total cpu time spent up to now is      292.8 secs

     total energy              =    -339.54087591 Ry
     estimated scf accuracy    <       0.00085204 Ry

     total magnetization       =     0.62 Bohr mag/cell
     absolute magnetization    =     0.65 Bohr mag/cell

     iteration #  7     ecut=    60.00 Ry     beta= 0.70
     Davidson diagonalization with overlap
     ethr =  4.73E-06,  avg # of iterations =  1.4

     total cpu time spent up to now is      294.0 secs

     total energy              =    -339.54089371 Ry
     estimated scf accuracy    <       0.00093848 Ry

     total magnetization       =     0.62 Bohr mag/cell
     absolute magnetization    =     0.65 Bohr mag/cell

     iteration #  8     ecut=    60.00 Ry     beta= 0.70
     Davidson diagonalization with overlap
     ethr =  4.73E-06,  avg # of iterations =  1.0

     total cpu time spent up to now is      295.2 secs

     total energy              =    -339.54088032 Ry
     estimated scf accuracy    <       0.00044024 Ry

     total magnetization       =     0.62 Bohr mag/cell
     absolute magnetization    =     0.65 Bohr mag/cell

     iteration #  9     ecut=    60.00 Ry     beta= 0.70
     Davidson diagonalization with overlap
     ethr =  2.45E-06,  avg # of iterations =  1.0

     total cpu time spent up to now is      296.3 secs

     total energy              =    -339.54089112 Ry
     estimated scf accuracy    <       0.00003570 Ry

     total magnetization       =     0.62 Bohr mag/cell
     absolute magnetization    =     0.65 Bohr mag/cell

     iteration # 10     ecut=    60.00 Ry     beta= 0.70
     Davidson diagonalization with overlap
     ethr =  1.98E-07,  avg # of iterations =  1.0

     total cpu time spent up to now is      297.4 secs

     total energy              =    -339.54088987 Ry
     estimated scf accuracy    <       0.00008192 Ry

     total magnetization       =     0.62 Bohr mag/cell
     absolute magnetization    =     0.65 Bohr mag/cell

     iteration # 11     ecut=    60.00 Ry     beta= 0.70
     Davidson diagonalization with overlap
     ethr =  1.98E-07,  avg # of iterations =  1.0

     total cpu time spent up to now is      298.6 secs

     total energy              =    -339.54088987 Ry
     estimated scf accuracy    <       0.00003976 Ry

     total magnetization       =     0.62 Bohr mag/cell
     absolute magnetization    =     0.65 Bohr mag/cell

     iteration # 12     ecut=    60.00 Ry     beta= 0.70
     Davidson diagonalization with overlap
     ethr =  1.98E-07,  avg # of iterations =  1.0

     total cpu time spent up to now is      299.7 secs

     total energy              =    -339.54089071 Ry
     estimated scf accuracy    <       0.00000193 Ry

     total magnetization       =     0.62 Bohr mag/cell
     absolute magnetization    =     0.65 Bohr mag/cell

     iteration # 13     ecut=    60.00 Ry     beta= 0.70
     Davidson diagonalization with overlap
     ethr =  1.07E-08,  avg # of iterations =  1.0

     total cpu time spent up to now is      300.8 secs

     total energy              =    -339.54089077 Ry
     estimated scf accuracy    <       0.00000041 Ry

     total magnetization       =     0.62 Bohr mag/cell
     absolute magnetization    =     0.66 Bohr mag/cell

     iteration # 14     ecut=    60.00 Ry     beta= 0.70
     Davidson diagonalization with overlap
     ethr =  2.29E-09,  avg # of iterations =  1.9

     total cpu time spent up to now is      302.2 secs

     total energy              =    -339.54089079 Ry
     estimated scf accuracy    <       0.00000053 Ry

     total magnetization       =     0.62 Bohr mag/cell
     absolute magnetization    =     0.66 Bohr mag/cell

     iteration # 15     ecut=    60.00 Ry     beta= 0.70
     Davidson diagonalization with overlap
     ethr =  2.29E-09,  avg # of iterations =  1.0

     total cpu time spent up to now is      303.3 secs

     total energy              =    -339.54089081 Ry
     estimated scf accuracy    <       0.00000010 Ry

     total magnetization       =     0.62 Bohr mag/cell
     absolute magnetization    =     0.66 Bohr mag/cell

     iteration # 16     ecut=    60.00 Ry     beta= 0.70
     Davidson diagonalization with overlap
     ethr =  5.76E-10,  avg # of iterations =  1.5

     total cpu time spent up to now is      304.6 secs

     total energy              =    -339.54089081 Ry
     estimated scf accuracy    <       0.00000030 Ry

     total magnetization       =     0.62 Bohr mag/cell
     absolute magnetization    =     0.66 Bohr mag/cell

     iteration # 17     ecut=    60.00 Ry     beta= 0.70
     Davidson diagonalization with overlap
     ethr =  5.76E-10,  avg # of iterations =  1.2

     total cpu time spent up to now is      305.8 secs

     total energy              =    -339.54089081 Ry
     estimated scf accuracy    <       0.00000013 Ry

     total magnetization       =     0.62 Bohr mag/cell
     absolute magnetization    =     0.66 Bohr mag/cell

     iteration # 18     ecut=    60.00 Ry     beta= 0.70
     Davidson diagonalization with overlap
     ethr =  5.76E-10,  avg # of iterations =  1.0

     total cpu time spent up to now is      306.9 secs

     total energy              =    -339.54089082 Ry
     estimated scf accuracy    <       0.00000014 Ry

     total magnetization       =     0.62 Bohr mag/cell
     absolute magnetization    =     0.66 Bohr mag/cell

     iteration # 19     ecut=    60.00 Ry     beta= 0.70
     Davidson diagonalization with overlap
     ethr =  5.76E-10,  avg # of iterations =  2.0

     total cpu time spent up to now is      308.3 secs

     total energy              =    -339.54089077 Ry
     estimated scf accuracy    <       0.00000216 Ry

     total magnetization       =     0.62 Bohr mag/cell
     absolute magnetization    =     0.66 Bohr mag/cell

     iteration # 20     ecut=    60.00 Ry     beta= 0.70
     Davidson diagonalization with overlap
     ethr =  5.76E-10,  avg # of iterations =  2.0

     total cpu time spent up to now is      309.7 secs

     total energy              =    -339.54089081 Ry
     estimated scf accuracy    <       0.00000004 Ry

     total magnetization       =     0.62 Bohr mag/cell
     absolute magnetization    =     0.66 Bohr mag/cell

     iteration # 21     ecut=    60.00 Ry     beta= 0.70
     Davidson diagonalization with overlap
     ethr =  2.13E-10,  avg # of iterations =  1.0

     total cpu time spent up to now is      310.8 secs

     total energy              =    -339.54089081 Ry
     estimated scf accuracy    <       0.00000002 Ry

     total magnetization       =     0.62 Bohr mag/cell
     absolute magnetization    =     0.66 Bohr mag/cell

     iteration # 22     ecut=    60.00 Ry     beta= 0.70
     Davidson diagonalization with overlap
     ethr =  1.02E-10,  avg # of iterations =  2.0

     total cpu time spent up to now is      312.1 secs

     total energy              =    -339.54089081 Ry
     estimated scf accuracy    <       0.00000009 Ry

     total magnetization       =     0.62 Bohr mag/cell
     absolute magnetization    =     0.66 Bohr mag/cell

     iteration # 23     ecut=    60.00 Ry     beta= 0.70
     Davidson diagonalization with overlap
     ethr =  1.02E-10,  avg # of iterations =  1.0

     total cpu time spent up to now is      313.2 secs

     total energy              =    -339.54089081 Ry
     estimated scf accuracy    <       0.00000003 Ry

     total magnetization       =     0.62 Bohr mag/cell
     absolute magnetization    =     0.66 Bohr mag/cell

     iteration # 24     ecut=    60.00 Ry     beta= 0.70
     Davidson diagonalization with overlap
     ethr =  1.02E-10,  avg # of iterations =  1.0

     total cpu time spent up to now is      314.4 secs

     total energy              =    -339.54089081 Ry
     estimated scf accuracy    <          9.2E-09 Ry

     total magnetization       =     0.62 Bohr mag/cell
     absolute magnetization    =     0.66 Bohr mag/cell

     iteration # 25     ecut=    60.00 Ry     beta= 0.70
     Davidson diagonalization with overlap
     ethr =  5.10E-11,  avg # of iterations =  1.0

     total cpu time spent up to now is      315.5 secs

     total energy              =    -339.54089081 Ry
     estimated scf accuracy    <          1.9E-09 Ry

     total magnetization       =     0.62 Bohr mag/cell
     absolute magnetization    =     0.66 Bohr mag/cell

     iteration # 26     ecut=    60.00 Ry     beta= 0.70
     Davidson diagonalization with overlap
     ethr =  1.03E-11,  avg # of iterations =  1.0

     Magnetic moment per site  (integrated on atomic sphere of radius R)
     atom   1 (R=0.413)  charge= 15.5793  magn=  0.6228

     total cpu time spent up to now is      316.6 secs

     End of self-consistent calculation

     Number of k-points >= 100: set verbosity='high' to print the bands.

     the Fermi energy is    16.0404 ev

!    total energy              =    -339.54089081 Ry
     estimated scf accuracy    <          8.1E-11 Ry
     smearing contrib. (-TS)   =       0.00011186 Ry
     internal energy E=F+TS    =    -339.54100267 Ry

     The total energy is F=E-TS. E is the sum of the following terms:
     one-electron contribution =    -205.55387939 Ry
     hartree contribution      =     113.01645628 Ry
     xc contribution           =     -34.34507953 Ry
     ewald contribution        =    -212.65850003 Ry

     total magnetization       =     0.62 Bohr mag/cell
     absolute magnetization    =     0.66 Bohr mag/cell

     convergence has been achieved in  26 iterations

     Forces acting on atoms (cartesian axes, Ry/au):

     atom    1 type  1   force =     0.00000000    0.00000000    0.00000000

     Total force =     0.000000     Total SCF correction =     0.000011


     Computing stress (Cartesian axis) and pressure

          total   stress  (Ry/bohr**3)                   (kbar)     P=       90.54
   0.00159280   0.00000000  -0.00000000          234.31        0.00       -0.00
   0.00000000   0.00014429  -0.00000007            0.00       21.23       -0.01
  -0.00000000  -0.00000007   0.00010926           -0.00       -0.01       16.07


     Writing all to output data dir ./out/pwscf.save/

     init_run     :      0.95s CPU      1.14s WALL (       2 calls)
     electrons    :    259.38s CPU    311.83s WALL (       8 calls)
     update_pot   :      0.37s CPU      0.39s WALL (       6 calls)
     forces       :      0.80s CPU      1.06s WALL (       8 calls)
     stress       :      1.85s CPU      2.03s WALL (       8 calls)

     Called by init_run:
     wfcinit      :      0.72s CPU      0.87s WALL (       2 calls)
     potinit      :      0.04s CPU      0.04s WALL (       2 calls)
     hinit0       :      0.18s CPU      0.22s WALL (       2 calls)

     Called by electrons:
     c_bands      :    222.69s CPU    267.65s WALL (     218 calls)
     sum_band     :     35.07s CPU     42.28s WALL (     218 calls)
     v_of_rho     :      0.94s CPU      1.01s WALL (     226 calls)
     newd         :      0.51s CPU      0.58s WALL (     226 calls)
     mix_rho      :      0.10s CPU      0.20s WALL (     218 calls)

     Called by c_bands:
     init_us_2    :      2.51s CPU      3.04s WALL (  180238 calls)
     init_us_2:cp :      2.31s CPU      2.83s WALL (  180238 calls)
     cegterg      :    214.61s CPU    256.69s WALL (   86546 calls)

     Called by *egterg:
     cdiaghg      :     29.96s CPU     35.20s WALL (  232257 calls)
     h_psi        :    147.05s CPU    176.74s WALL (  235433 calls)
     s_psi        :      5.91s CPU      7.06s WALL (  235433 calls)
     g_psi        :      0.33s CPU      0.40s WALL (  148093 calls)

     Called by h_psi:
     h_psi:calbec :      7.76s CPU      9.29s WALL (  235433 calls)
     vloc_psi     :    133.66s CPU    160.73s WALL (  235433 calls)
     add_vuspsi   :      4.73s CPU      5.67s WALL (  235433 calls)

     General routines
     calbec       :     11.05s CPU     13.45s WALL (  337859 calls)
     fft          :      0.37s CPU      0.46s WALL (    5960 calls)
     ffts         :      0.03s CPU      0.04s WALL (     888 calls)
     fftw         :    152.52s CPU    183.56s WALL ( 6277768 calls)
     interpolate  :      0.04s CPU      0.05s WALL (     452 calls)

     Parallel routines

     PWSCF        :   4m24.20s CPU   5m18.06s WALL


   This run was terminated on:  15:32:35  18Jun2023            

=------------------------------------------------------------------------------=
   JOB DONE.
=------------------------------------------------------------------------------=
Note: The following floating-point exceptions are signalling: IEEE_INVALID_FLAG IEEE_DENORMAL
Note: The following floating-point exceptions are signalling: IEEE_DENORMAL
Note: The following floating-point exceptions are signalling: IEEE_DENORMAL
Note: The following floating-point exceptions are signalling: IEEE_DENORMAL
Note: The following floating-point exceptions are signalling: IEEE_DENORMAL
Note: The following floating-point exceptions are signalling: IEEE_DENORMAL
Note: The following floating-point exceptions are signalling: IEEE_DENORMAL
