Ignoring PCI device with non-16bit domain.
Pass --enable-32bits-pci-domain to configure to support such devices
(warning: it would break the library ABI, don't enable unless really needed).

     Program PWSCF v.7.1 starts on 23Jun2023 at 15:13:52 

     This program is part of the open-source Quantum ESPRESSO suite
     for quantum simulation of materials; please cite
         "P. Giannozzi et al., J. Phys.:Condens. Matter 21 395502 (2009);
         "P. Giannozzi et al., J. Phys.:Condens. Matter 29 465901 (2017);
         "P. Giannozzi et al., J. Chem. Phys. 152 154105 (2020);
          URL http://www.quantum-espresso.org", 
     in publications or presentations arising from this work. More details at
     http://www.quantum-espresso.org/quote

     Parallel version (MPI), running on    24 processors

     MPI processes distributed on     1 nodes
     12367 MiB available memory on the printing compute node when the environment starts

     Reading input from Ni_cubic_sc_atoms.in

     Current dimensions of program PWSCF are:
     Max number of different atomic species (ntypx) = 10
     Max number of k-points (npk) =  40000
     Max angular momentum in pseudopotentials (lmaxx) =  4
     Found identity + (  0.0000  0.0000 -0.5000) symmetry
     This is a supercell, fractional translations are disabled

     K-points division:     npool     =       2
     R & G space division:  proc/nbgrp/npool/nimage =      12
     Subspace diagonalization in iterative solution of the eigenvalue problem:
     a serial algorithm will be used


     Parallelization info
     --------------------
     sticks:   dense  smooth     PW     G-vecs:    dense   smooth      PW
     Min          45      23      7                 1602      563     103
     Max          47      24      8                 1606      568     110
     Sum         553     277     89                19253     6801    1261

     Using Slab Decomposition



     bravais-lattice index     =            0
     lattice parameter (alat)  =       3.7795  a.u.
     unit-cell volume          =     107.9733 (a.u.)^3
     number of atoms/cell      =            2
     number of atomic types    =            1
     number of electrons       =        36.00
     number of Kohn-Sham states=           22
     kinetic-energy cutoff     =      60.0000  Ry
     charge density cutoff     =     480.0000  Ry
     scf convergence threshold =      1.0E-06
     mixing beta               =       0.7000
     number of iterations used =            8  TF        mixing
     energy convergence thresh.=      1.0E-05
     force convergence thresh. =      1.0E-04
     press convergence thresh. =      5.0E-01
     Exchange-correlation= PBE
                           (   1   4   3   4   0   0   0)
     nstep                     =           50


     celldm(1)=   3.779452  celldm(2)=   0.000000  celldm(3)=   0.000000
     celldm(4)=   0.000000  celldm(5)=   0.000000  celldm(6)=   0.000000

     crystal axes: (cart. coord. in units of alat)
               a(1) = (   1.000000   0.000000   0.000000 )  
               a(2) = (   0.000000   1.000000   0.000000 )  
               a(3) = (   0.000000   0.000000   2.000000 )  

     reciprocal axes: (cart. coord. in units 2 pi/alat)
               b(1) = (  1.000000  0.000000  0.000000 )  
               b(2) = (  0.000000  1.000000  0.000000 )  
               b(3) = (  0.000000  0.000000  0.500000 )  


     PseudoPot. # 1 for Ni read from file:
     /home/jmgoff/work/automation/qe_pseudos/Ni.upf
     MD5 check sum: caf20d35bef94d268ef04de15446df97
     Pseudo is Ultrasoft + core correction, Zval = 18.0
     Generated using 'atomic' code by A. Dal Corso  v.7.1
     Using radial grid of 1195 points,  6 beta functions with: 
                l(1) =   0
                l(2) =   0
                l(3) =   1
                l(4) =   1
                l(5) =   2
                l(6) =   2
     Q(r) pseudized with 0 coefficients 


     atomic species   valence    mass     pseudopotential
        Ni            18.00    58.69340     Ni( 1.00)

     Starting magnetic structure 
     atomic species   magnetization
        Ni           1.000

     No symmetry found



   Cartesian axes

     site n.     atom                  positions (alat units)
         1           Ni  tau(   1) = (   0.0000000   0.0000000   0.0000000  )
         2           Ni  tau(   2) = (   0.0000000   0.0000000   1.0000000  )

     number of k points=   303  Marzari-Vanderbilt smearing, width (Ry)=  0.0100

     Number of k-points >= 100: set verbosity='high' to print them.

     Dense  grid:    19253 G-vectors     FFT dimensions: (  27,  27,  54)

     Smooth grid:     6801 G-vectors     FFT dimensions: (  20,  20,  40)

     Estimated max dynamical RAM per process >      14.72 MB

     Estimated total dynamical RAM >     343.94 MB

     Check: negative core charge=   -0.000001
     Generating pointlists ...
     new r_m :   0.4125 (alat units)  1.5590 (a.u.) for type    1

     Initial potential from superposition of free atoms

     starting charge      35.9995, renormalised to      36.0000
     Starting wfcs are   20 randomized atomic wfcs +    2 random wfcs

     total cpu time spent up to now is        1.0 secs

     Self-consistent Calculation

     iteration #  1     ecut=    60.00 Ry     beta= 0.70
     Davidson diagonalization with overlap
     ethr =  1.00E-02,  avg # of iterations =  5.1

     total cpu time spent up to now is        5.0 secs

     total energy              =    -673.67046812 Ry
     estimated scf accuracy    <      16.67411206 Ry

     total magnetization       =     7.98 Bohr mag/cell
     absolute magnetization    =     8.55 Bohr mag/cell

     iteration #  2     ecut=    60.00 Ry     beta= 0.70
     Davidson diagonalization with overlap
     ethr =  1.00E-02,  avg # of iterations =  2.6

     total cpu time spent up to now is        8.5 secs

     total energy              =    -677.78991044 Ry
     estimated scf accuracy    <       6.65892768 Ry

     total magnetization       =     2.29 Bohr mag/cell
     absolute magnetization    =     2.82 Bohr mag/cell

     iteration #  3     ecut=    60.00 Ry     beta= 0.70
     Davidson diagonalization with overlap
     ethr =  1.00E-02,  avg # of iterations =  2.0

     negative rho (up, down):  0.000E+00 2.883E-03

     total cpu time spent up to now is       11.3 secs

     total energy              =    -679.32840114 Ry
     estimated scf accuracy    <       1.88663314 Ry

     total magnetization       =     2.37 Bohr mag/cell
     absolute magnetization    =     3.58 Bohr mag/cell

     iteration #  4     ecut=    60.00 Ry     beta= 0.70
     Davidson diagonalization with overlap
     ethr =  5.24E-03,  avg # of iterations =  3.1

     total cpu time spent up to now is       14.8 secs

     total energy              =    -664.62196377 Ry
     estimated scf accuracy    <     823.70183117 Ry

     total magnetization       =     1.16 Bohr mag/cell
     absolute magnetization    =    57.83 Bohr mag/cell

     iteration #  5     ecut=    60.00 Ry     beta= 0.70
     Davidson diagonalization with overlap
     ethr =  5.24E-03,  avg # of iterations =  2.8

     total cpu time spent up to now is       18.2 secs

     total energy              =    -679.00664961 Ry
     estimated scf accuracy    <       8.48275037 Ry

     total magnetization       =     1.14 Bohr mag/cell
     absolute magnetization    =     4.89 Bohr mag/cell

     iteration #  6     ecut=    60.00 Ry     beta= 0.70
     Davidson diagonalization with overlap
     ethr =  5.24E-03,  avg # of iterations =  2.0

     total cpu time spent up to now is       20.9 secs

     total energy              =    -678.29147086 Ry
     estimated scf accuracy    <      32.33584629 Ry

     total magnetization       =     1.01 Bohr mag/cell
     absolute magnetization    =    11.55 Bohr mag/cell

     iteration #  7     ecut=    60.00 Ry     beta= 0.70
     Davidson diagonalization with overlap
     ethr =  5.24E-03,  avg # of iterations =  2.0

     total cpu time spent up to now is       23.8 secs

     total energy              =    -678.78206457 Ry
     estimated scf accuracy    <       1.48332828 Ry

     total magnetization       =     1.04 Bohr mag/cell
     absolute magnetization    =     1.51 Bohr mag/cell

     iteration #  8     ecut=    60.00 Ry     beta= 0.70
     Davidson diagonalization with overlap
     ethr =  4.12E-03,  avg # of iterations =  2.0

     total cpu time spent up to now is       26.7 secs

     total energy              =    -678.81657546 Ry
     estimated scf accuracy    <      10.51047508 Ry

     total magnetization       =     0.86 Bohr mag/cell
     absolute magnetization    =     6.51 Bohr mag/cell

     iteration #  9     ecut=    60.00 Ry     beta= 0.70
     Davidson diagonalization with overlap
     ethr =  4.12E-03,  avg # of iterations =  1.2

     total cpu time spent up to now is       29.0 secs

     total energy              =    -678.77872547 Ry
     estimated scf accuracy    <       3.80995724 Ry

     total magnetization       =     0.85 Bohr mag/cell
     absolute magnetization    =     3.78 Bohr mag/cell

     iteration # 10     ecut=    60.00 Ry     beta= 0.70
     Davidson diagonalization with overlap
     ethr =  4.12E-03,  avg # of iterations =  1.5

     total cpu time spent up to now is       31.4 secs

     total energy              =    -678.81210997 Ry
     estimated scf accuracy    <       1.29550128 Ry

     total magnetization       =     0.77 Bohr mag/cell
     absolute magnetization    =     2.46 Bohr mag/cell

     iteration # 11     ecut=    60.00 Ry     beta= 0.70
     Davidson diagonalization with overlap
     ethr =  3.60E-03,  avg # of iterations =  1.1

     total cpu time spent up to now is       33.6 secs

     total energy              =    -678.78855251 Ry
     estimated scf accuracy    <       2.21963534 Ry

     total magnetization       =     0.72 Bohr mag/cell
     absolute magnetization    =     3.21 Bohr mag/cell

     iteration # 12     ecut=    60.00 Ry     beta= 0.70
     Davidson diagonalization with overlap
     ethr =  3.60E-03,  avg # of iterations =  1.0

     total cpu time spent up to now is       35.8 secs

     total energy              =    -678.80837811 Ry
     estimated scf accuracy    <       0.15887458 Ry

     total magnetization       =     0.71 Bohr mag/cell
     absolute magnetization    =     0.99 Bohr mag/cell

     iteration # 13     ecut=    60.00 Ry     beta= 0.70
     Davidson diagonalization with overlap
     ethr =  4.41E-04,  avg # of iterations =  1.5

     total cpu time spent up to now is       38.4 secs

     total energy              =    -678.80810372 Ry
     estimated scf accuracy    <       0.15698181 Ry

     total magnetization       =     0.67 Bohr mag/cell
     absolute magnetization    =     1.06 Bohr mag/cell

     iteration # 14     ecut=    60.00 Ry     beta= 0.70
     Davidson diagonalization with overlap
     ethr =  4.36E-04,  avg # of iterations =  2.0

     total cpu time spent up to now is       41.1 secs

     total energy              =    -678.82689371 Ry
     estimated scf accuracy    <       1.39864304 Ry

     total magnetization       =     0.81 Bohr mag/cell
     absolute magnetization    =     2.66 Bohr mag/cell

     iteration # 15     ecut=    60.00 Ry     beta= 0.70
     Davidson diagonalization with overlap
     ethr =  4.36E-04,  avg # of iterations =  1.0

     total cpu time spent up to now is       43.2 secs

     total energy              =    -678.79266560 Ry
     estimated scf accuracy    <       1.01211675 Ry

     total magnetization       =     0.61 Bohr mag/cell
     absolute magnetization    =     1.91 Bohr mag/cell

     iteration # 16     ecut=    60.00 Ry     beta= 0.70
     Davidson diagonalization with overlap
     ethr =  4.36E-04,  avg # of iterations =  2.0

     total cpu time spent up to now is       46.0 secs

     total energy              =    -678.80143219 Ry
     estimated scf accuracy    <       0.90297590 Ry

     total magnetization       =     0.64 Bohr mag/cell
     absolute magnetization    =     2.11 Bohr mag/cell

     iteration # 17     ecut=    60.00 Ry     beta= 0.70
     Davidson diagonalization with overlap
     ethr =  4.36E-04,  avg # of iterations =  2.0

     total cpu time spent up to now is       48.8 secs

     total energy              =    -678.80817449 Ry
     estimated scf accuracy    <       0.22864709 Ry

     total magnetization       =     0.63 Bohr mag/cell
     absolute magnetization    =     0.83 Bohr mag/cell

     iteration # 18     ecut=    60.00 Ry     beta= 0.70
     Davidson diagonalization with overlap
     ethr =  4.36E-04,  avg # of iterations =  2.0

     total cpu time spent up to now is       51.5 secs

     total energy              =    -678.80983704 Ry
     estimated scf accuracy    <       0.93718849 Ry

     total magnetization       =     0.63 Bohr mag/cell
     absolute magnetization    =     2.08 Bohr mag/cell

     iteration # 19     ecut=    60.00 Ry     beta= 0.70
     Davidson diagonalization with overlap
     ethr =  4.36E-04,  avg # of iterations =  1.6

     total cpu time spent up to now is       54.0 secs

     total energy              =    -678.81532587 Ry
     estimated scf accuracy    <       0.14445155 Ry

     total magnetization       =     0.63 Bohr mag/cell
     absolute magnetization    =     1.00 Bohr mag/cell

     iteration # 20     ecut=    60.00 Ry     beta= 0.70
     Davidson diagonalization with overlap
     ethr =  4.01E-04,  avg # of iterations =  2.0

     total cpu time spent up to now is       56.9 secs

     total energy              =    -678.75449277 Ry
     estimated scf accuracy    <       6.14602699 Ry

     total magnetization       =     0.61 Bohr mag/cell
     absolute magnetization    =     4.86 Bohr mag/cell

     iteration # 21     ecut=    60.00 Ry     beta= 0.70
     Davidson diagonalization with overlap
     ethr =  4.01E-04,  avg # of iterations =  2.0

     total cpu time spent up to now is       59.7 secs

     total energy              =    -678.78879694 Ry
     estimated scf accuracy    <       1.69733470 Ry

     total magnetization       =     0.62 Bohr mag/cell
     absolute magnetization    =     2.70 Bohr mag/cell

     iteration # 22     ecut=    60.00 Ry     beta= 0.70
     Davidson diagonalization with overlap
     ethr =  4.01E-04,  avg # of iterations =  2.0

     total cpu time spent up to now is       62.5 secs

     total energy              =    -678.81244644 Ry
     estimated scf accuracy    <       3.05964587 Ry

     total magnetization       =     0.61 Bohr mag/cell
     absolute magnetization    =     3.67 Bohr mag/cell

     iteration # 23     ecut=    60.00 Ry     beta= 0.70
     Davidson diagonalization with overlap
     ethr =  4.01E-04,  avg # of iterations =  2.0

     total cpu time spent up to now is       65.4 secs

     total energy              =    -678.82740321 Ry
     estimated scf accuracy    <       4.84915780 Ry

     total magnetization       =     0.58 Bohr mag/cell
     absolute magnetization    =     3.74 Bohr mag/cell

     iteration # 24     ecut=    60.00 Ry     beta= 0.70
     Davidson diagonalization with overlap
     ethr =  4.01E-04,  avg # of iterations =  2.0

     total cpu time spent up to now is       68.2 secs

     total energy              =    -678.84152980 Ry
     estimated scf accuracy    <       3.55930026 Ry

     total magnetization       =     0.56 Bohr mag/cell
     absolute magnetization    =     3.68 Bohr mag/cell

     iteration # 25     ecut=    60.00 Ry     beta= 0.70
     Davidson diagonalization with overlap
     ethr =  4.01E-04,  avg # of iterations =  1.5

     total cpu time spent up to now is       70.7 secs

     total energy              =    -678.81609456 Ry
     estimated scf accuracy    <       2.36731805 Ry

     total magnetization       =     0.58 Bohr mag/cell
     absolute magnetization    =     2.91 Bohr mag/cell

     iteration # 26     ecut=    60.00 Ry     beta= 0.70
     Davidson diagonalization with overlap
     ethr =  4.01E-04,  avg # of iterations =  2.0

     total cpu time spent up to now is       73.5 secs

     total energy              =    -678.72635845 Ry
     estimated scf accuracy    <       6.49058247 Ry

     total magnetization       =     0.58 Bohr mag/cell
     absolute magnetization    =     4.76 Bohr mag/cell

     iteration # 27     ecut=    60.00 Ry     beta= 0.70
     Davidson diagonalization with overlap
     ethr =  4.01E-04,  avg # of iterations =  2.0

     total cpu time spent up to now is       76.4 secs

     total energy              =    -678.74354050 Ry
     estimated scf accuracy    <       1.03264676 Ry

     total magnetization       =     0.59 Bohr mag/cell
     absolute magnetization    =     1.57 Bohr mag/cell

     iteration # 28     ecut=    60.00 Ry     beta= 0.70
     Davidson diagonalization with overlap
     ethr =  4.01E-04,  avg # of iterations =  2.0

     total cpu time spent up to now is       79.3 secs

     total energy              =    -678.93974167 Ry
     estimated scf accuracy    <      16.96839339 Ry

     total magnetization       =     0.63 Bohr mag/cell
     absolute magnetization    =     8.30 Bohr mag/cell

     iteration # 29     ecut=    60.00 Ry     beta= 0.70
     Davidson diagonalization with overlap
     ethr =  4.01E-04,  avg # of iterations =  3.2

     total cpu time spent up to now is       82.8 secs

     total energy              =    -677.65612205 Ry
     estimated scf accuracy    <     111.12600491 Ry

     total magnetization       =     0.65 Bohr mag/cell
     absolute magnetization    =    18.57 Bohr mag/cell

     iteration # 30     ecut=    60.00 Ry     beta= 0.70
     Davidson diagonalization with overlap
     ethr =  4.01E-04,  avg # of iterations =  3.1

     total cpu time spent up to now is       86.2 secs

     total energy              =    -679.10311976 Ry
     estimated scf accuracy    <      21.38792325 Ry

     total magnetization       =     0.53 Bohr mag/cell
     absolute magnetization    =     8.33 Bohr mag/cell

     iteration # 31     ecut=    60.00 Ry     beta= 0.70
     Davidson diagonalization with overlap
     ethr =  4.01E-04,  avg # of iterations =  2.0

     total cpu time spent up to now is       89.0 secs

     total energy              =    -679.16699515 Ry
     estimated scf accuracy    <      24.65364903 Ry

     total magnetization       =     0.47 Bohr mag/cell
     absolute magnetization    =     8.84 Bohr mag/cell

     iteration # 32     ecut=    60.00 Ry     beta= 0.70
     Davidson diagonalization with overlap
     ethr =  4.01E-04,  avg # of iterations =  3.0

     total cpu time spent up to now is       92.3 secs

     total energy              =    -677.86680405 Ry
     estimated scf accuracy    <      94.97987073 Ry

     total magnetization       =     0.36 Bohr mag/cell
     absolute magnetization    =    19.18 Bohr mag/cell

     iteration # 33     ecut=    60.00 Ry     beta= 0.70
     Davidson diagonalization with overlap
     ethr =  4.01E-04,  avg # of iterations =  2.8

     total cpu time spent up to now is       95.6 secs

     total energy              =    -679.15207987 Ry
     estimated scf accuracy    <      21.08349759 Ry

     total magnetization       =     0.53 Bohr mag/cell
     absolute magnetization    =     8.27 Bohr mag/cell

     iteration # 34     ecut=    60.00 Ry     beta= 0.70
     Davidson diagonalization with overlap
     ethr =  4.01E-04,  avg # of iterations =  2.7

     total cpu time spent up to now is       98.8 secs

     total energy              =    -678.93884460 Ry
     estimated scf accuracy    <      78.95500402 Ry

     total magnetization       =     0.55 Bohr mag/cell
     absolute magnetization    =    17.36 Bohr mag/cell

     iteration # 35     ecut=    60.00 Ry     beta= 0.70
     Davidson diagonalization with overlap
     ethr =  4.01E-04,  avg # of iterations =  2.2

     total cpu time spent up to now is      101.8 secs

     total energy              =    -679.69604410 Ry
     estimated scf accuracy    <      62.51106867 Ry

     total magnetization       =     0.59 Bohr mag/cell
     absolute magnetization    =    14.70 Bohr mag/cell

     iteration # 36     ecut=    60.00 Ry     beta= 0.70
     Davidson diagonalization with overlap
     ethr =  4.01E-04,  avg # of iterations =  1.9

     negative rho (up, down):  2.816E-02 3.332E-03

     total cpu time spent up to now is      104.5 secs

     total energy              =    -679.01948125 Ry
     estimated scf accuracy    <      66.93578035 Ry

     total magnetization       =     0.50 Bohr mag/cell
     absolute magnetization    =    15.37 Bohr mag/cell

     iteration # 37     ecut=    60.00 Ry     beta= 0.70
     Davidson diagonalization with overlap
     ethr =  4.01E-04,  avg # of iterations =  4.0

     negative rho (up, down):  2.242E-02 8.920E-03

     total cpu time spent up to now is      109.0 secs

     total energy              =    -683.39116151 Ry
     estimated scf accuracy    <     484.06723901 Ry

     total magnetization       =    -0.39 Bohr mag/cell
     absolute magnetization    =    37.71 Bohr mag/cell

     iteration # 38     ecut=    60.00 Ry     beta= 0.70
     Davidson diagonalization with overlap
     ethr =  4.01E-04,  avg # of iterations =  3.0

     negative rho (up, down):  4.516E-02 2.299E-03

     total cpu time spent up to now is      112.3 secs

     total energy              =    -681.09656715 Ry
     estimated scf accuracy    <     336.93694348 Ry

     total magnetization       =    -0.14 Bohr mag/cell
     absolute magnetization    =    29.55 Bohr mag/cell

     iteration # 39     ecut=    60.00 Ry     beta= 0.70
     Davidson diagonalization with overlap
     ethr =  4.01E-04,  avg # of iterations =  4.5

     negative rho (up, down):  0.000E+00 6.393E-03

     total cpu time spent up to now is      117.2 secs

     total energy              =    -669.98015368 Ry
     estimated scf accuracy    <     885.00913055 Ry

     total magnetization       =     0.14 Bohr mag/cell
     absolute magnetization    =    59.31 Bohr mag/cell

     iteration # 40     ecut=    60.00 Ry     beta= 0.70
     Davidson diagonalization with overlap
     ethr =  4.01E-04,  avg # of iterations =  3.7

     negative rho (up, down):  5.838E-03 2.150E-02

     total cpu time spent up to now is      121.4 secs

     total energy              =    -681.67078309 Ry
     estimated scf accuracy    <     171.25025661 Ry

     total magnetization       =     0.17 Bohr mag/cell
     absolute magnetization    =    25.10 Bohr mag/cell

     iteration # 41     ecut=    60.00 Ry     beta= 0.70
     Davidson diagonalization with overlap
     ethr =  4.01E-04,  avg # of iterations =  2.7

     negative rho (up, down):  3.141E-04 7.761E-03

     total cpu time spent up to now is      124.9 secs

     total energy              =    -681.11640301 Ry
     estimated scf accuracy    <     247.09901810 Ry

     total magnetization       =     0.40 Bohr mag/cell
     absolute magnetization    =    29.04 Bohr mag/cell

     iteration # 42     ecut=    60.00 Ry     beta= 0.70
     Davidson diagonalization with overlap
     ethr =  4.01E-04,  avg # of iterations =  2.0

     negative rho (up, down):  3.663E-02 2.040E-01

     total cpu time spent up to now is      128.0 secs

     total energy              =    -686.87964657 Ry
     estimated scf accuracy    <     200.59850041 Ry

     total magnetization       =     0.32 Bohr mag/cell
     absolute magnetization    =    27.68 Bohr mag/cell

     iteration # 43     ecut=    60.00 Ry     beta= 0.70
     Davidson diagonalization with overlap
     ethr =  4.01E-04,  avg # of iterations =  5.4

     negative rho (up, down):  3.313E-02 1.856E-01

     total cpu time spent up to now is      133.4 secs

     total energy              =    -704.24685286 Ry
     estimated scf accuracy    <    1226.02816548 Ry

     total magnetization       =     0.41 Bohr mag/cell
     absolute magnetization    =    55.82 Bohr mag/cell

     iteration # 44     ecut=    60.00 Ry     beta= 0.70
     Davidson diagonalization with overlap
     ethr =  4.01E-04,  avg # of iterations =  4.3

     negative rho (up, down):  1.986E-01 1.618E-01

     total cpu time spent up to now is      138.0 secs

     total energy              =    -680.39597361 Ry
     estimated scf accuracy    <    1520.57875002 Ry

     total magnetization       =     0.24 Bohr mag/cell
     absolute magnetization    =    74.81 Bohr mag/cell

     iteration # 45     ecut=    60.00 Ry     beta= 0.70
     Davidson diagonalization with overlap
     ethr =  4.01E-04,  avg # of iterations =  5.4

     negative rho (up, down):  4.560E-01 8.251E-01

     total cpu time spent up to now is      144.1 secs

     total energy              =    -691.65970919 Ry
     estimated scf accuracy    <    1674.40235100 Ry

     total magnetization       =     0.22 Bohr mag/cell
     absolute magnetization    =    73.20 Bohr mag/cell

     iteration # 46     ecut=    60.00 Ry     beta= 0.70
     Davidson diagonalization with overlap
     ethr =  4.01E-04,  avg # of iterations =  8.4

     negative rho (up, down):  6.864E-01 6.780E-01

     total cpu time spent up to now is      151.8 secs

     total energy              =    -768.10233944 Ry
     estimated scf accuracy    <    2664.20740853 Ry

     total magnetization       =    -0.08 Bohr mag/cell
     absolute magnetization    =    76.84 Bohr mag/cell

     iteration # 47     ecut=    60.00 Ry     beta= 0.70
     Davidson diagonalization with overlap
     ethr =  4.01E-04,  avg # of iterations =  5.3

     negative rho (up, down):  9.180E-01 2.339E-01

     total cpu time spent up to now is      157.2 secs

     total energy              =    -714.89282798 Ry
     estimated scf accuracy    <    2676.89004982 Ry

     total magnetization       =    -0.00 Bohr mag/cell
     absolute magnetization    =    88.50 Bohr mag/cell

     iteration # 48     ecut=    60.00 Ry     beta= 0.70
     Davidson diagonalization with overlap
     ethr =  4.01E-04,  avg # of iterations =  6.3

     negative rho (up, down):  8.150E-01 4.770E-01

     total cpu time spent up to now is      163.3 secs

     total energy              =    -767.61796959 Ry
     estimated scf accuracy    <    2117.74063306 Ry

     total magnetization       =     0.03 Bohr mag/cell
     absolute magnetization    =    72.32 Bohr mag/cell

     iteration # 49     ecut=    60.00 Ry     beta= 0.70
     Davidson diagonalization with overlap
     ethr =  4.01E-04,  avg # of iterations =  5.0

     negative rho (up, down):  1.640E+00 1.957E+00

     total cpu time spent up to now is      168.5 secs

     total energy              =    -764.88615982 Ry
     estimated scf accuracy    <    2488.52832857 Ry

     total magnetization       =    -0.24 Bohr mag/cell
     absolute magnetization    =    60.49 Bohr mag/cell

     iteration # 50     ecut=    60.00 Ry     beta= 0.70
     Davidson diagonalization with overlap
     ethr =  4.01E-04,  avg # of iterations =  9.4

     negative rho (up, down):  1.293E+00 2.078E+00

     total cpu time spent up to now is      177.1 secs

     total energy              =    -886.20464122 Ry
     estimated scf accuracy    <    3434.53794608 Ry

     total magnetization       =    -0.00 Bohr mag/cell
     absolute magnetization    =    83.99 Bohr mag/cell

     iteration # 51     ecut=    60.00 Ry     beta= 0.70
     Davidson diagonalization with overlap
     ethr =  4.01E-04,  avg # of iterations =  7.1

     negative rho (up, down):  5.031E+00 2.011E+00

     total cpu time spent up to now is      183.3 secs

     total energy              =    -651.53816227 Ry
     estimated scf accuracy    <    3408.02230693 Ry

     total magnetization       =     0.10 Bohr mag/cell
     absolute magnetization    =    78.25 Bohr mag/cell

     iteration # 52     ecut=    60.00 Ry     beta= 0.70
     Davidson diagonalization with overlap
     c_bands:  1 eigenvalues not converged
     c_bands:  1 eigenvalues not converged
     ethr =  4.01E-04,  avg # of iterations = 12.6

     negative rho (up, down):  2.928E+00 4.537E+00

     total cpu time spent up to now is      194.4 secs

     total energy              =    -294.68630379 Ry
     estimated scf accuracy    <    4263.11982785 Ry

     total magnetization       =     0.19 Bohr mag/cell
     absolute magnetization    =    45.47 Bohr mag/cell

     iteration # 53     ecut=    60.00 Ry     beta= 0.70
     Davidson diagonalization with overlap
     c_bands:  1 eigenvalues not converged
     ethr =  4.01E-04,  avg # of iterations = 12.7

     negative rho (up, down):  4.426E+00 3.748E+00

     total cpu time spent up to now is      205.5 secs

     total energy              =    -564.75611637 Ry
     estimated scf accuracy    <    3544.65414576 Ry

     total magnetization       =    -0.26 Bohr mag/cell
     absolute magnetization    =    67.16 Bohr mag/cell

     iteration # 54     ecut=    60.00 Ry     beta= 0.70
     Davidson diagonalization with overlap
     ethr =  4.01E-04,  avg # of iterations = 12.8

     negative rho (up, down):  3.964E+00 3.843E+00

     total cpu time spent up to now is      216.4 secs

     total energy              =    -650.53362998 Ry
     estimated scf accuracy    <    3660.49710339 Ry

     total magnetization       =    -0.16 Bohr mag/cell
     absolute magnetization    =    63.84 Bohr mag/cell

     iteration # 55     ecut=    60.00 Ry     beta= 0.70
     Davidson diagonalization with overlap
     ethr =  4.01E-04,  avg # of iterations =  8.7

     negative rho (up, down):  4.003E+00 3.245E+00

     total cpu time spent up to now is      224.4 secs

     total energy              =    -638.32553843 Ry
     estimated scf accuracy    <    2319.18730450 Ry

     total magnetization       =     0.13 Bohr mag/cell
     absolute magnetization    =   115.87 Bohr mag/cell

     iteration # 56     ecut=    60.00 Ry     beta= 0.70
     Davidson diagonalization with overlap
     ethr =  4.01E-04,  avg # of iterations = 12.8

     negative rho (up, down):  1.920E+00 2.844E+00

     total cpu time spent up to now is      234.8 secs

     total energy              =    -645.07476506 Ry
     estimated scf accuracy    <    3694.95679242 Ry

     total magnetization       =     0.32 Bohr mag/cell
     absolute magnetization    =    51.49 Bohr mag/cell

     iteration # 57     ecut=    60.00 Ry     beta= 0.70
     Davidson diagonalization with overlap
     ethr =  4.01E-04,  avg # of iterations =  9.0

     negative rho (up, down):  2.816E+00 3.310E+00

     total cpu time spent up to now is      243.5 secs

     total energy              =    -747.59461163 Ry
     estimated scf accuracy    <    2544.50814336 Ry

     total magnetization       =     0.19 Bohr mag/cell
     absolute magnetization    =   107.60 Bohr mag/cell

     iteration # 58     ecut=    60.00 Ry     beta= 0.70
     Davidson diagonalization with overlap
     ethr =  4.01E-04,  avg # of iterations =  7.2

     negative rho (up, down):  2.407E+00 3.710E+00

     total cpu time spent up to now is      250.0 secs

     total energy              =    -841.60420504 Ry
     estimated scf accuracy    <    2565.43856686 Ry

     total magnetization       =    -0.06 Bohr mag/cell
     absolute magnetization    =   115.19 Bohr mag/cell

     iteration # 59     ecut=    60.00 Ry     beta= 0.70
     Davidson diagonalization with overlap
     ethr =  4.01E-04,  avg # of iterations = 10.4

     negative rho (up, down):  1.567E+00 2.437E+00

     total cpu time spent up to now is      259.2 secs

     total energy              =    -660.62536417 Ry
     estimated scf accuracy    <    3690.97191946 Ry

     total magnetization       =     0.41 Bohr mag/cell
     absolute magnetization    =    70.36 Bohr mag/cell

     iteration # 60     ecut=    60.00 Ry     beta= 0.70
     Davidson diagonalization with overlap
     ethr =  4.01E-04,  avg # of iterations =  9.2

     negative rho (up, down):  3.000E+00 3.714E+00

     total cpu time spent up to now is      268.0 secs

     total energy              =    -743.84441704 Ry
     estimated scf accuracy    <    2776.37611794 Ry

     total magnetization       =    -0.05 Bohr mag/cell
     absolute magnetization    =   103.83 Bohr mag/cell

     iteration # 61     ecut=    60.00 Ry     beta= 0.70
     Davidson diagonalization with overlap
     ethr =  4.01E-04,  avg # of iterations =  9.2

     negative rho (up, down):  9.061E+00 3.310E+00

     total cpu time spent up to now is      276.5 secs

     total energy              =    -751.75338408 Ry
     estimated scf accuracy    <    3140.21136783 Ry

     total magnetization       =     0.26 Bohr mag/cell
     absolute magnetization    =    95.11 Bohr mag/cell

     iteration # 62     ecut=    60.00 Ry     beta= 0.70
     Davidson diagonalization with overlap
     c_bands:  1 eigenvalues not converged
     c_bands:  1 eigenvalues not converged
     c_bands:  1 eigenvalues not converged
     c_bands:  1 eigenvalues not converged
     c_bands:  1 eigenvalues not converged
     ethr =  4.01E-04,  avg # of iterations = 14.1

     negative rho (up, down):  4.958E+00 8.104E+00

     total cpu time spent up to now is      288.8 secs

     total energy              =    -288.69154418 Ry
     estimated scf accuracy    <    4952.58390093 Ry

     total magnetization       =    -0.17 Bohr mag/cell
     absolute magnetization    =    36.38 Bohr mag/cell

     iteration # 63     ecut=    60.00 Ry     beta= 0.70
     Davidson diagonalization with overlap
     c_bands:  1 eigenvalues not converged
     c_bands:  1 eigenvalues not converged
     c_bands:  1 eigenvalues not converged
     c_bands:  1 eigenvalues not converged
     c_bands:  1 eigenvalues not converged
     ethr =  4.01E-04,  avg # of iterations = 16.8

     negative rho (up, down):  5.221E+00 6.586E+00

     total cpu time spent up to now is      303.7 secs

     total energy              =    -501.98950892 Ry
     estimated scf accuracy    <    5256.25292997 Ry

     total magnetization       =    -0.08 Bohr mag/cell
     absolute magnetization    =    32.75 Bohr mag/cell

     iteration # 64     ecut=    60.00 Ry     beta= 0.70
     Davidson diagonalization with overlap
     ethr =  4.01E-04,  avg # of iterations = 13.3

     negative rho (up, down):  4.085E+00 4.627E+00

     total cpu time spent up to now is      315.8 secs

     total energy              =    -615.63257149 Ry
     estimated scf accuracy    <    4102.34785917 Ry

     total magnetization       =    -0.13 Bohr mag/cell
     absolute magnetization    =    59.58 Bohr mag/cell

     iteration # 65     ecut=    60.00 Ry     beta= 0.70
     Davidson diagonalization with overlap
     ethr =  4.01E-04,  avg # of iterations =  9.2

     negative rho (up, down):  6.955E+00 6.212E+00

     total cpu time spent up to now is      324.6 secs

     total energy              =    -775.40486330 Ry
     estimated scf accuracy    <    2376.49310608 Ry

     total magnetization       =    -0.22 Bohr mag/cell
     absolute magnetization    =   123.95 Bohr mag/cell

     iteration # 66     ecut=    60.00 Ry     beta= 0.70
     Davidson diagonalization with overlap
     ethr =  4.01E-04,  avg # of iterations = 12.7

     negative rho (up, down):  3.903E+00 4.622E+00

     total cpu time spent up to now is      335.7 secs

     total energy              =    -529.37340505 Ry
     estimated scf accuracy    <    4587.38611614 Ry

     total magnetization       =     0.27 Bohr mag/cell
     absolute magnetization    =    31.12 Bohr mag/cell

     iteration # 67     ecut=    60.00 Ry     beta= 0.70
     Davidson diagonalization with overlap
     ethr =  4.01E-04,  avg # of iterations = 10.2

     negative rho (up, down):  3.710E+00 4.622E+00

     total cpu time spent up to now is      344.8 secs

     total energy              =    -789.73215009 Ry
     estimated scf accuracy    <    2428.80872332 Ry

     total magnetization       =     0.08 Bohr mag/cell
     absolute magnetization    =   121.98 Bohr mag/cell

     iteration # 68     ecut=    60.00 Ry     beta= 0.70
     Davidson diagonalization with overlap
     ethr =  4.01E-04,  avg # of iterations =  5.5

     negative rho (up, down):  4.799E+00 5.765E+00

     total cpu time spent up to now is      350.0 secs

     total energy              =    -760.26880340 Ry
     estimated scf accuracy    <    2380.56945220 Ry

     total magnetization       =     0.14 Bohr mag/cell
     absolute magnetization    =   120.23 Bohr mag/cell

     iteration # 69     ecut=    60.00 Ry     beta= 0.70
     Davidson diagonalization with overlap
     c_bands:  1 eigenvalues not converged
     c_bands:  2 eigenvalues not converged
     ethr =  4.01E-04,  avg # of iterations = 13.0

     negative rho (up, down):  4.041E+00 6.625E+00

     total cpu time spent up to now is      361.5 secs

     total energy              =    -582.22441597 Ry
     estimated scf accuracy    <    4109.43211441 Ry

     total magnetization       =     0.27 Bohr mag/cell
     absolute magnetization    =    61.00 Bohr mag/cell

     iteration # 70     ecut=    60.00 Ry     beta= 0.70
     Davidson diagonalization with overlap
     c_bands:  1 eigenvalues not converged
     c_bands:  1 eigenvalues not converged
     ethr =  4.01E-04,  avg # of iterations = 11.0

     negative rho (up, down):  4.564E+00 7.510E+00

     total cpu time spent up to now is      372.4 secs

     total energy              =    -729.07338979 Ry
     estimated scf accuracy    <    2675.70707909 Ry

     total magnetization       =    -0.44 Bohr mag/cell
     absolute magnetization    =    87.31 Bohr mag/cell

     iteration # 71     ecut=    60.00 Ry     beta= 0.70
     Davidson diagonalization with overlap
     ethr =  4.01E-04,  avg # of iterations = 11.2

     negative rho (up, down):  1.057E+01 3.882E+00

     total cpu time spent up to now is      382.3 secs

     total energy              =    -439.57451498 Ry
     estimated scf accuracy    <    3289.00389438 Ry

     total magnetization       =    -0.03 Bohr mag/cell
     absolute magnetization    =    74.36 Bohr mag/cell

     iteration # 72     ecut=    60.00 Ry     beta= 0.70
     Davidson diagonalization with overlap
     ethr =  4.01E-04,  avg # of iterations = 15.0

     negative rho (up, down):  7.284E+00 7.279E+00

     total cpu time spent up to now is      395.6 secs

     total energy              =    -389.11974046 Ry
     estimated scf accuracy    <    4747.67791453 Ry

     total magnetization       =     0.25 Bohr mag/cell
     absolute magnetization    =    31.62 Bohr mag/cell

     iteration # 73     ecut=    60.00 Ry     beta= 0.70
     Davidson diagonalization with overlap
     c_bands:  1 eigenvalues not converged
     ethr =  4.01E-04,  avg # of iterations = 14.2

     negative rho (up, down):  6.698E+00 7.786E+00

     total cpu time spent up to now is      408.0 secs

     total energy              =    -530.99612439 Ry
     estimated scf accuracy    <    4007.37351329 Ry

     total magnetization       =     0.11 Bohr mag/cell
     absolute magnetization    =    57.47 Bohr mag/cell

     iteration # 74     ecut=    60.00 Ry     beta= 0.70
     Davidson diagonalization with overlap
     c_bands:  1 eigenvalues not converged
     c_bands:  1 eigenvalues not converged
     ethr =  4.01E-04,  avg # of iterations = 13.7

     negative rho (up, down):  6.299E+00 6.454E+00

     total cpu time spent up to now is      419.8 secs

     total energy              =    -603.32938478 Ry
     estimated scf accuracy    <    3782.07730460 Ry

     total magnetization       =    -0.01 Bohr mag/cell
     absolute magnetization    =    67.35 Bohr mag/cell

     iteration # 75     ecut=    60.00 Ry     beta= 0.70
     Davidson diagonalization with overlap
     c_bands:  1 eigenvalues not converged
     ethr =  4.01E-04,  avg # of iterations =  9.5

     negative rho (up, down):  8.088E+00 6.665E+00

     total cpu time spent up to now is      428.7 secs

     total energy              =    -860.96760863 Ry
     estimated scf accuracy    <    2111.28399473 Ry

     total magnetization       =     0.06 Bohr mag/cell
     absolute magnetization    =   128.24 Bohr mag/cell

     iteration # 76     ecut=    60.00 Ry     beta= 0.70
     Davidson diagonalization with overlap
     ethr =  4.01E-04,  avg # of iterations = 12.2

     negative rho (up, down):  6.426E+00 6.451E+00

     total cpu time spent up to now is      438.9 secs

     total energy              =    -524.58132551 Ry
     estimated scf accuracy    <    4583.19792857 Ry

     total magnetization       =     0.04 Bohr mag/cell
     absolute magnetization    =    33.80 Bohr mag/cell

     iteration # 77     ecut=    60.00 Ry     beta= 0.70
     Davidson diagonalization with overlap
     ethr =  4.01E-04,  avg # of iterations =  9.1

     negative rho (up, down):  6.217E+00 6.208E+00

     total cpu time spent up to now is      447.5 secs

     total energy              =    -781.12882890 Ry
     estimated scf accuracy    <    2096.38286284 Ry

     total magnetization       =     0.08 Bohr mag/cell
     absolute magnetization    =   128.38 Bohr mag/cell

     iteration # 78     ecut=    60.00 Ry     beta= 0.70
     Davidson diagonalization with overlap
     ethr =  4.01E-04,  avg # of iterations =  3.1

     negative rho (up, down):  7.808E+00 7.412E+00

     total cpu time spent up to now is      451.4 secs

     total energy              =    -782.03306046 Ry
     estimated scf accuracy    <    2137.38961672 Ry

     total magnetization       =    -0.01 Bohr mag/cell
     absolute magnetization    =   128.49 Bohr mag/cell

     iteration # 79     ecut=    60.00 Ry     beta= 0.70
     Davidson diagonalization with overlap
     ethr =  4.01E-04,  avg # of iterations =  8.6

     negative rho (up, down):  6.321E+00 7.953E+00

     total cpu time spent up to now is      458.9 secs

     total energy              =    -710.93005372 Ry
     estimated scf accuracy    <    2393.34521430 Ry

     total magnetization       =    -0.05 Bohr mag/cell
     absolute magnetization    =   104.51 Bohr mag/cell

     iteration # 80     ecut=    60.00 Ry     beta= 0.70
     Davidson diagonalization with overlap
     ethr =  4.01E-04,  avg # of iterations =  8.3

     negative rho (up, down):  7.363E+00 8.637E+00

     total cpu time spent up to now is      467.0 secs

     total energy              =    -654.88717341 Ry
     estimated scf accuracy    <    2046.90615974 Ry

     total magnetization       =    -0.35 Bohr mag/cell
     absolute magnetization    =   108.25 Bohr mag/cell

     iteration # 81     ecut=    60.00 Ry     beta= 0.70
     Davidson diagonalization with overlap
     ethr =  4.01E-04,  avg # of iterations = 13.6

     negative rho (up, down):  1.121E+01 6.260E+00

     total cpu time spent up to now is      478.3 secs

     total energy              =    -514.86375315 Ry
     estimated scf accuracy    <    3809.56012380 Ry

     total magnetization       =     0.09 Bohr mag/cell
     absolute magnetization    =    65.53 Bohr mag/cell

     iteration # 82     ecut=    60.00 Ry     beta= 0.70
     Davidson diagonalization with overlap
     ethr =  4.01E-04,  avg # of iterations = 13.1

     negative rho (up, down):  7.153E+00 8.489E+00

     total cpu time spent up to now is      490.6 secs

     total energy              =    -411.84825536 Ry
     estimated scf accuracy    <    3608.78002482 Ry

     total magnetization       =     0.35 Bohr mag/cell
     absolute magnetization    =    43.99 Bohr mag/cell

     iteration # 83     ecut=    60.00 Ry     beta= 0.70
     Davidson diagonalization with overlap
     ethr =  4.01E-04,  avg # of iterations = 11.5

     negative rho (up, down):  8.971E+00 9.939E+00

     total cpu time spent up to now is      500.6 secs

     total energy              =    -668.95985533 Ry
     estimated scf accuracy    <    2484.36616783 Ry

     total magnetization       =     0.07 Bohr mag/cell
     absolute magnetization    =    96.16 Bohr mag/cell

     iteration # 84     ecut=    60.00 Ry     beta= 0.70
     Davidson diagonalization with overlap
     ethr =  4.01E-04,  avg # of iterations =  8.4

     negative rho (up, down):  9.391E+00 9.609E+00

     total cpu time spent up to now is      508.6 secs

     total energy              =    -721.67758663 Ry
     estimated scf accuracy    <    1759.22321780 Ry

     total magnetization       =    -0.21 Bohr mag/cell
     absolute magnetization    =   114.51 Bohr mag/cell

     iteration # 85     ecut=    60.00 Ry     beta= 0.70
     Davidson diagonalization with overlap
     ethr =  4.01E-04,  avg # of iterations =  6.8

     negative rho (up, down):  1.069E+01 1.007E+01

     total cpu time spent up to now is      515.5 secs

     total energy              =    -784.32066968 Ry
     estimated scf accuracy    <    1512.19602301 Ry

     total magnetization       =    -0.00 Bohr mag/cell
     absolute magnetization    =   129.55 Bohr mag/cell

     iteration # 86     ecut=    60.00 Ry     beta= 0.70
     Davidson diagonalization with overlap
     ethr =  4.01E-04,  avg # of iterations =  9.1

     negative rho (up, down):  8.883E+00 8.882E+00

     total cpu time spent up to now is      523.8 secs

     total energy              =    -559.89112728 Ry
     estimated scf accuracy    <    3329.22664173 Ry

     total magnetization       =     0.25 Bohr mag/cell
     absolute magnetization    =    55.16 Bohr mag/cell

     iteration # 87     ecut=    60.00 Ry     beta= 0.70
     Davidson diagonalization with overlap
     ethr =  4.01E-04,  avg # of iterations =  9.0

     negative rho (up, down):  8.219E+00 8.181E+00

     total cpu time spent up to now is      531.8 secs

     total energy              =    -765.95655482 Ry
     estimated scf accuracy    <    1614.95114262 Ry

     total magnetization       =     0.05 Bohr mag/cell
     absolute magnetization    =   128.97 Bohr mag/cell

     iteration # 88     ecut=    60.00 Ry     beta= 0.70
     Davidson diagonalization with overlap
     ethr =  4.01E-04,  avg # of iterations =  5.0

     negative rho (up, down):  8.513E+00 8.804E+00

     total cpu time spent up to now is      536.8 secs

     total energy              =    -796.77366478 Ry
     estimated scf accuracy    <    1724.45336325 Ry

     total magnetization       =     0.01 Bohr mag/cell
     absolute magnetization    =   125.75 Bohr mag/cell

     iteration # 89     ecut=    60.00 Ry     beta= 0.70
     Davidson diagonalization with overlap
     c_bands:  1 eigenvalues not converged
     ethr =  4.01E-04,  avg # of iterations = 11.2

     negative rho (up, down):  9.011E+00 8.938E+00

     total cpu time spent up to now is      546.5 secs

     total energy              =    -625.06916856 Ry
     estimated scf accuracy    <    3207.72280636 Ry

     total magnetization       =     0.15 Bohr mag/cell
     absolute magnetization    =    80.58 Bohr mag/cell

     iteration # 90     ecut=    60.00 Ry     beta= 0.70
     Davidson diagonalization with overlap
     ethr =  4.01E-04,  avg # of iterations =  8.9

     negative rho (up, down):  7.414E+00 1.329E+01

     total cpu time spent up to now is      554.9 secs

     total energy              =    -811.73904036 Ry
     estimated scf accuracy    <    1563.95546484 Ry

     total magnetization       =     0.02 Bohr mag/cell
     absolute magnetization    =   128.17 Bohr mag/cell

     iteration # 91     ecut=    60.00 Ry     beta= 0.70
     Davidson diagonalization with overlap
     ethr =  4.01E-04,  avg # of iterations = 11.5

     negative rho (up, down):  1.307E+01 8.574E+00

     total cpu time spent up to now is      565.0 secs

     total energy              =    -341.83660004 Ry
     estimated scf accuracy    <    4330.97092849 Ry

     total magnetization       =    -0.23 Bohr mag/cell
     absolute magnetization    =    46.05 Bohr mag/cell

     iteration # 92     ecut=    60.00 Ry     beta= 0.70
     Davidson diagonalization with overlap
     ethr =  4.01E-04,  avg # of iterations = 14.6

     negative rho (up, down):  9.896E+00 9.831E+00

     total cpu time spent up to now is      577.8 secs

     total energy              =    -645.41016628 Ry
     estimated scf accuracy    <    4172.72014722 Ry

     total magnetization       =     0.07 Bohr mag/cell
     absolute magnetization    =    60.76 Bohr mag/cell

     iteration # 93     ecut=    60.00 Ry     beta= 0.70
     Davidson diagonalization with overlap
     ethr =  4.01E-04,  avg # of iterations =  9.7

     negative rho (up, down):  8.800E+00 1.004E+01

     total cpu time spent up to now is      586.7 secs

     total energy              =    -712.06306119 Ry
     estimated scf accuracy    <    1855.90419536 Ry

     total magnetization       =     0.28 Bohr mag/cell
     absolute magnetization    =   101.89 Bohr mag/cell

     iteration # 94     ecut=    60.00 Ry     beta= 0.70
     Davidson diagonalization with overlap
     ethr =  4.01E-04,  avg # of iterations =  8.8

     negative rho (up, down):  1.046E+01 9.535E+00

     total cpu time spent up to now is      594.8 secs

     total energy              =    -712.75701173 Ry
     estimated scf accuracy    <    1811.10492792 Ry

     total magnetization       =    -0.02 Bohr mag/cell
     absolute magnetization    =   105.20 Bohr mag/cell

     iteration # 95     ecut=    60.00 Ry     beta= 0.70
     Davidson diagonalization with overlap
     ethr =  4.01E-04,  avg # of iterations =  8.0

     negative rho (up, down):  1.521E+01 1.549E+01

     total cpu time spent up to now is      602.2 secs

     total energy              =    -592.36134775 Ry
     estimated scf accuracy    <    1416.53484394 Ry

     total magnetization       =     0.33 Bohr mag/cell
     absolute magnetization    =   116.87 Bohr mag/cell

     iteration # 96     ecut=    60.00 Ry     beta= 0.70
     Davidson diagonalization with overlap
     ethr =  4.01E-04,  avg # of iterations = 10.9

     negative rho (up, down):  1.325E+01 1.357E+01

     total cpu time spent up to now is      611.9 secs

     total energy              =    -494.99316881 Ry
     estimated scf accuracy    <    4406.52249176 Ry

     total magnetization       =     0.28 Bohr mag/cell
     absolute magnetization    =    36.71 Bohr mag/cell

     iteration # 97     ecut=    60.00 Ry     beta= 0.70
     Davidson diagonalization with overlap
     ethr =  4.01E-04,  avg # of iterations =  8.7

     negative rho (up, down):  1.292E+01 1.167E+01

     total cpu time spent up to now is      620.1 secs

     total energy              =    -742.80907898 Ry
     estimated scf accuracy    <     952.57718314 Ry

     total magnetization       =     0.14 Bohr mag/cell
     absolute magnetization    =   128.00 Bohr mag/cell

     iteration # 98     ecut=    60.00 Ry     beta= 0.70
     Davidson diagonalization with overlap
     ethr =  4.01E-04,  avg # of iterations =  7.1

     negative rho (up, down):  1.422E+01 1.329E+01

     total cpu time spent up to now is      626.8 secs

     total energy              =    -709.81881775 Ry
     estimated scf accuracy    <    1433.35769346 Ry

     total magnetization       =     0.56 Bohr mag/cell
     absolute magnetization    =   113.26 Bohr mag/cell

     iteration # 99     ecut=    60.00 Ry     beta= 0.70
     Davidson diagonalization with overlap
     ethr =  4.01E-04,  avg # of iterations = 12.2

     negative rho (up, down):  1.324E+01 1.305E+01

     total cpu time spent up to now is      637.2 secs

     total energy              =    -561.07722942 Ry
     estimated scf accuracy    <    3266.33646585 Ry

     total magnetization       =     0.01 Bohr mag/cell
     absolute magnetization    =    74.92 Bohr mag/cell

     iteration #100     ecut=    60.00 Ry     beta= 0.70
     Davidson diagonalization with overlap
     ethr =  4.01E-04,  avg # of iterations =  8.9

     negative rho (up, down):  1.281E+01 1.648E+01

     total cpu time spent up to now is      645.7 secs

     total energy              =    -744.93811605 Ry
     estimated scf accuracy    <     946.90513330 Ry

     total magnetization       =     0.19 Bohr mag/cell
     absolute magnetization    =   128.09 Bohr mag/cell

     End of self-consistent calculation

     convergence NOT achieved after 100 iterations: stopping

     Writing config to output data dir ./out/pwscf.save/

     init_run     :      0.74s CPU      0.87s WALL (       1 calls)
     electrons    :    534.26s CPU    644.76s WALL (       1 calls)

     Called by init_run:
     wfcinit      :      0.62s CPU      0.71s WALL (       1 calls)
     potinit      :      0.02s CPU      0.02s WALL (       1 calls)
     hinit0       :      0.10s CPU      0.12s WALL (       1 calls)

     Called by electrons:
     c_bands      :    507.51s CPU    613.48s WALL (     100 calls)
     sum_band     :     25.77s CPU     30.12s WALL (     100 calls)
     v_of_rho     :      0.59s CPU      0.63s WALL (     101 calls)
     newd         :      0.26s CPU      0.28s WALL (     101 calls)
     mix_rho      :      0.08s CPU      0.13s WALL (     100 calls)

     Called by c_bands:
     init_us_2    :      1.14s CPU      1.40s WALL (   60903 calls)
     init_us_2:cp :      1.07s CPU      1.33s WALL (   60903 calls)
     cegterg      :    496.19s CPU    579.52s WALL (   30300 calls)

     Called by *egterg:
     cdiaghg      :    136.74s CPU    160.89s WALL (  231649 calls)
     h_psi        :    227.54s CPU    270.20s WALL (  231952 calls)
     s_psi        :     16.47s CPU     18.79s WALL (  231952 calls)
     g_psi        :      0.82s CPU      0.91s WALL (  201349 calls)

     Called by h_psi:
     h_psi:calbec :     17.37s CPU     20.47s WALL (  231952 calls)
     vloc_psi     :    192.38s CPU    229.14s WALL (  231952 calls)
     add_vuspsi   :     16.64s CPU     19.28s WALL (  231952 calls)

     General routines
     calbec       :     20.19s CPU     23.81s WALL (  262252 calls)
     fft          :      0.23s CPU      0.28s WALL (    2523 calls)
     ffts         :      0.01s CPU      0.02s WALL (     402 calls)
     fftw         :    200.88s CPU    238.91s WALL ( 7355448 calls)
     interpolate  :      0.02s CPU      0.03s WALL (     202 calls)
     davcio       :      0.00s CPU      0.00s WALL (      18 calls)

     Parallel routines

     PWSCF        :   8m55.16s CPU  10m45.82s WALL


   This run was terminated on:  15:24:38  23Jun2023            

=------------------------------------------------------------------------------=
   JOB DONE.
=------------------------------------------------------------------------------=
Note: The following floating-point exceptions are signalling: IEEE_DENORMAL
Note: The following floating-point exceptions are signalling: IEEE_DENORMAL
Note: The following floating-point exceptions are signalling: IEEE_DENORMAL
Note: The following floating-point exceptions are signalling: IEEE_DENORMAL
