Ignoring PCI device with non-16bit domain.
Pass --enable-32bits-pci-domain to configure to support such devices
(warning: it would break the library ABI, don't enable unless really needed).

     Program PWSCF v.7.1 starts on 23Jun2023 at 15:35:38 

     This program is part of the open-source Quantum ESPRESSO suite
     for quantum simulation of materials; please cite
         "P. Giannozzi et al., J. Phys.:Condens. Matter 21 395502 (2009);
         "P. Giannozzi et al., J. Phys.:Condens. Matter 29 465901 (2017);
         "P. Giannozzi et al., J. Chem. Phys. 152 154105 (2020);
          URL http://www.quantum-espresso.org", 
     in publications or presentations arising from this work. More details at
     http://www.quantum-espresso.org/quote

     Parallel version (MPI), running on    24 processors

     MPI processes distributed on     1 nodes
     12299 MiB available memory on the printing compute node when the environment starts

     Reading input from Ni_monoclinic_sm_atoms.in

     Current dimensions of program PWSCF are:
     Max number of different atomic species (ntypx) = 10
     Max number of k-points (npk) =  40000
     Max angular momentum in pseudopotentials (lmaxx) =  4
     Found identity + (  0.0000  0.0000 -0.5000) symmetry
     This is a supercell, fractional translations are disabled

     R & G space division:  proc/nbgrp/npool/nimage =      24
     Subspace diagonalization in iterative solution of the eigenvalue problem:
     a serial algorithm will be used


     Parallelization info
     --------------------
     sticks:   dense  smooth     PW     G-vecs:    dense   smooth      PW
     Min          41      20      6                 2213      776     131
     Max          42      21      7                 2223      789     139
     Sum        1007     493    151                53261    18763    3211

     Using Slab Decomposition



     bravais-lattice index     =            0
     lattice parameter (alat)  =       5.6099  a.u.
     unit-cell volume          =     299.5410 (a.u.)^3
     number of atoms/cell      =            2
     number of atomic types    =            1
     number of electrons       =        36.00
     number of Kohn-Sham states=           22
     kinetic-energy cutoff     =      60.0000  Ry
     charge density cutoff     =     480.0000  Ry
     scf convergence threshold =      1.0E-06
     mixing beta               =       0.7000
     number of iterations used =            8  TF        mixing
     energy convergence thresh.=      1.0E-05
     force convergence thresh. =      1.0E-04
     press convergence thresh. =      5.0E-01
     Exchange-correlation= PBE
                           (   1   4   3   4   0   0   0)
     nstep                     =           50


     celldm(1)=   5.609878  celldm(2)=   0.000000  celldm(3)=   0.000000
     celldm(4)=   0.000000  celldm(5)=   0.000000  celldm(6)=   0.000000

     crystal axes: (cart. coord. in units of alat)
               a(1) = (   1.000000   0.000000   0.000000 )  
               a(2) = (   0.000000   0.833333   0.000000 )  
               a(3) = (  -0.741042   0.000000   2.035998 )  

     reciprocal axes: (cart. coord. in units 2 pi/alat)
               b(1) = (  1.000000 -0.000000  0.363970 )  
               b(2) = (  0.000000  1.200000 -0.000000 )  
               b(3) = (  0.000000  0.000000  0.491160 )  


     PseudoPot. # 1 for Ni read from file:
     /home/jmgoff/work/automation/qe_pseudos/Ni.upf
     MD5 check sum: caf20d35bef94d268ef04de15446df97
     Pseudo is Ultrasoft + core correction, Zval = 18.0
     Generated using 'atomic' code by A. Dal Corso  v.7.1
     Using radial grid of 1195 points,  6 beta functions with: 
                l(1) =   0
                l(2) =   0
                l(3) =   1
                l(4) =   1
                l(5) =   2
                l(6) =   2
     Q(r) pseudized with 0 coefficients 


     atomic species   valence    mass     pseudopotential
        Ni            18.00    58.69340     Ni( 1.00)

     Starting magnetic structure 
     atomic species   magnetization
        Ni           1.000

     No symmetry found



   Cartesian axes

     site n.     atom                  positions (alat units)
         1           Ni  tau(   1) = (   0.0000000   0.0000000   0.0000000  )
         2           Ni  tau(   2) = (  -0.3705212   0.0000000   1.0179988  )

     number of k points=    95  Marzari-Vanderbilt smearing, width (Ry)=  0.0100
                       cart. coord. in units 2pi/alat
        k(    1) = (   0.0000000   0.0000000   0.0000000), wk =   0.0052910
        k(    2) = (   0.0000000   0.0000000   0.1637199), wk =   0.0105820
        k(    3) = (   0.0000000   0.1333333   0.0000000), wk =   0.0105820
        k(    4) = (   0.0000000   0.1333333   0.1637199), wk =   0.0105820
        k(    5) = (   0.0000000   0.1333333  -0.1637199), wk =   0.0105820
        k(    6) = (   0.0000000   0.2666667   0.0000000), wk =   0.0105820
        k(    7) = (   0.0000000   0.2666667   0.1637199), wk =   0.0105820
        k(    8) = (   0.0000000   0.2666667  -0.1637199), wk =   0.0105820
        k(    9) = (   0.0000000   0.4000000   0.0000000), wk =   0.0105820
        k(   10) = (   0.0000000   0.4000000   0.1637199), wk =   0.0105820
        k(   11) = (   0.0000000   0.4000000  -0.1637199), wk =   0.0105820
        k(   12) = (   0.0000000   0.5333333   0.0000000), wk =   0.0105820
        k(   13) = (   0.0000000   0.5333333   0.1637199), wk =   0.0105820
        k(   14) = (   0.0000000   0.5333333  -0.1637199), wk =   0.0105820
        k(   15) = (   0.1428571   0.0000000   0.0519957), wk =   0.0105820
        k(   16) = (   0.1428571   0.0000000   0.2157157), wk =   0.0105820
        k(   17) = (   0.1428571   0.0000000  -0.1117242), wk =   0.0105820
        k(   18) = (   0.1428571   0.1333333   0.0519957), wk =   0.0105820
        k(   19) = (   0.1428571   0.1333333   0.2157157), wk =   0.0105820
        k(   20) = (   0.1428571   0.1333333  -0.1117242), wk =   0.0105820
        k(   21) = (   0.1428571   0.2666667   0.0519957), wk =   0.0105820
        k(   22) = (   0.1428571   0.2666667   0.2157157), wk =   0.0105820
        k(   23) = (   0.1428571   0.2666667  -0.1117242), wk =   0.0105820
        k(   24) = (   0.1428571   0.4000000   0.0519957), wk =   0.0105820
        k(   25) = (   0.1428571   0.4000000   0.2157157), wk =   0.0105820
        k(   26) = (   0.1428571   0.4000000  -0.1117242), wk =   0.0105820
        k(   27) = (   0.1428571   0.5333333   0.0519957), wk =   0.0105820
        k(   28) = (   0.1428571   0.5333333   0.2157157), wk =   0.0105820
        k(   29) = (   0.1428571   0.5333333  -0.1117242), wk =   0.0105820
        k(   30) = (   0.1428571  -0.5333333   0.0519957), wk =   0.0105820
        k(   31) = (   0.1428571  -0.5333333   0.2157157), wk =   0.0105820
        k(   32) = (   0.1428571  -0.5333333  -0.1117242), wk =   0.0105820
        k(   33) = (   0.1428571  -0.4000000   0.0519957), wk =   0.0105820
        k(   34) = (   0.1428571  -0.4000000   0.2157157), wk =   0.0105820
        k(   35) = (   0.1428571  -0.4000000  -0.1117242), wk =   0.0105820
        k(   36) = (   0.1428571  -0.2666667   0.0519957), wk =   0.0105820
        k(   37) = (   0.1428571  -0.2666667   0.2157157), wk =   0.0105820
        k(   38) = (   0.1428571  -0.2666667  -0.1117242), wk =   0.0105820
        k(   39) = (   0.1428571  -0.1333333   0.0519957), wk =   0.0105820
        k(   40) = (   0.1428571  -0.1333333   0.2157157), wk =   0.0105820
        k(   41) = (   0.1428571  -0.1333333  -0.1117242), wk =   0.0105820
        k(   42) = (   0.2857143   0.0000000   0.1039915), wk =   0.0105820
        k(   43) = (   0.2857143   0.0000000   0.2677114), wk =   0.0105820
        k(   44) = (   0.2857143   0.0000000  -0.0597284), wk =   0.0105820
        k(   45) = (   0.2857143   0.1333333   0.1039915), wk =   0.0105820
        k(   46) = (   0.2857143   0.1333333   0.2677114), wk =   0.0105820
        k(   47) = (   0.2857143   0.1333333  -0.0597284), wk =   0.0105820
        k(   48) = (   0.2857143   0.2666667   0.1039915), wk =   0.0105820
        k(   49) = (   0.2857143   0.2666667   0.2677114), wk =   0.0105820
        k(   50) = (   0.2857143   0.2666667  -0.0597284), wk =   0.0105820
        k(   51) = (   0.2857143   0.4000000   0.1039915), wk =   0.0105820
        k(   52) = (   0.2857143   0.4000000   0.2677114), wk =   0.0105820
        k(   53) = (   0.2857143   0.4000000  -0.0597284), wk =   0.0105820
        k(   54) = (   0.2857143   0.5333333   0.1039915), wk =   0.0105820
        k(   55) = (   0.2857143   0.5333333   0.2677114), wk =   0.0105820
        k(   56) = (   0.2857143   0.5333333  -0.0597284), wk =   0.0105820
        k(   57) = (   0.2857143  -0.5333333   0.1039915), wk =   0.0105820
        k(   58) = (   0.2857143  -0.5333333   0.2677114), wk =   0.0105820
        k(   59) = (   0.2857143  -0.5333333  -0.0597284), wk =   0.0105820
        k(   60) = (   0.2857143  -0.4000000   0.1039915), wk =   0.0105820
        k(   61) = (   0.2857143  -0.4000000   0.2677114), wk =   0.0105820
        k(   62) = (   0.2857143  -0.4000000  -0.0597284), wk =   0.0105820
        k(   63) = (   0.2857143  -0.2666667   0.1039915), wk =   0.0105820
        k(   64) = (   0.2857143  -0.2666667   0.2677114), wk =   0.0105820
        k(   65) = (   0.2857143  -0.2666667  -0.0597284), wk =   0.0105820
        k(   66) = (   0.2857143  -0.1333333   0.1039915), wk =   0.0105820
        k(   67) = (   0.2857143  -0.1333333   0.2677114), wk =   0.0105820
        k(   68) = (   0.2857143  -0.1333333  -0.0597284), wk =   0.0105820
        k(   69) = (   0.4285714   0.0000000   0.1559872), wk =   0.0105820
        k(   70) = (   0.4285714   0.0000000   0.3197072), wk =   0.0105820
        k(   71) = (   0.4285714   0.0000000  -0.0077327), wk =   0.0105820
        k(   72) = (   0.4285714   0.1333333   0.1559872), wk =   0.0105820
        k(   73) = (   0.4285714   0.1333333   0.3197072), wk =   0.0105820
        k(   74) = (   0.4285714   0.1333333  -0.0077327), wk =   0.0105820
        k(   75) = (   0.4285714   0.2666667   0.1559872), wk =   0.0105820
        k(   76) = (   0.4285714   0.2666667   0.3197072), wk =   0.0105820
        k(   77) = (   0.4285714   0.2666667  -0.0077327), wk =   0.0105820
        k(   78) = (   0.4285714   0.4000000   0.1559872), wk =   0.0105820
        k(   79) = (   0.4285714   0.4000000   0.3197072), wk =   0.0105820
        k(   80) = (   0.4285714   0.4000000  -0.0077327), wk =   0.0105820
        k(   81) = (   0.4285714   0.5333333   0.1559872), wk =   0.0105820
        k(   82) = (   0.4285714   0.5333333   0.3197072), wk =   0.0105820
        k(   83) = (   0.4285714   0.5333333  -0.0077327), wk =   0.0105820
        k(   84) = (   0.4285714  -0.5333333   0.1559872), wk =   0.0105820
        k(   85) = (   0.4285714  -0.5333333   0.3197072), wk =   0.0105820
        k(   86) = (   0.4285714  -0.5333333  -0.0077327), wk =   0.0105820
        k(   87) = (   0.4285714  -0.4000000   0.1559872), wk =   0.0105820
        k(   88) = (   0.4285714  -0.4000000   0.3197072), wk =   0.0105820
        k(   89) = (   0.4285714  -0.4000000  -0.0077327), wk =   0.0105820
        k(   90) = (   0.4285714  -0.2666667   0.1559872), wk =   0.0105820
        k(   91) = (   0.4285714  -0.2666667   0.3197072), wk =   0.0105820
        k(   92) = (   0.4285714  -0.2666667  -0.0077327), wk =   0.0105820
        k(   93) = (   0.4285714  -0.1333333   0.1559872), wk =   0.0105820
        k(   94) = (   0.4285714  -0.1333333   0.3197072), wk =   0.0105820
        k(   95) = (   0.4285714  -0.1333333  -0.0077327), wk =   0.0105820

     Dense  grid:    53261 G-vectors     FFT dimensions: (  40,  36,  90)

     Smooth grid:    18763 G-vectors     FFT dimensions: (  27,  24,  60)

     Estimated max dynamical RAM per process >      18.86 MB

     Estimated total dynamical RAM >     452.57 MB
     Generating pointlists ...
     new r_m :   0.3437 (alat units)  1.9284 (a.u.) for type    1

     Initial potential from superposition of free atoms

     starting charge      35.9995, renormalised to      36.0000
     Starting wfcs are   20 randomized atomic wfcs +    2 random wfcs

     total cpu time spent up to now is        0.9 secs

     Self-consistent Calculation

     iteration #  1     ecut=    60.00 Ry     beta= 0.70
     Davidson diagonalization with overlap
     ethr =  1.00E-02,  avg # of iterations =  6.4

     negative rho (up, down):  0.000E+00 1.765E-04

     total cpu time spent up to now is        4.8 secs

     total energy              =    -672.31968487 Ry
     estimated scf accuracy    <      19.07010549 Ry

     total magnetization       =     8.00 Bohr mag/cell
     absolute magnetization    =    11.29 Bohr mag/cell

     iteration #  2     ecut=    60.00 Ry     beta= 0.70
     Davidson diagonalization with overlap
     ethr =  1.00E-02,  avg # of iterations =  3.4

     total cpu time spent up to now is        7.9 secs

     total energy              =    -676.81971993 Ry
     estimated scf accuracy    <      22.06652948 Ry

     total magnetization       =     0.13 Bohr mag/cell
     absolute magnetization    =     1.38 Bohr mag/cell

     iteration #  3     ecut=    60.00 Ry     beta= 0.70
     Davidson diagonalization with overlap
     ethr =  1.00E-02,  avg # of iterations =  2.0

     negative rho (up, down):  0.000E+00 3.703E-02

     total cpu time spent up to now is       10.4 secs

     total energy              =    -679.85444501 Ry
     estimated scf accuracy    <       4.81932080 Ry

     total magnetization       =     2.42 Bohr mag/cell
     absolute magnetization    =     4.72 Bohr mag/cell

     iteration #  4     ecut=    60.00 Ry     beta= 0.70
     Davidson diagonalization with overlap
     ethr =  1.00E-02,  avg # of iterations =  3.2

     negative rho (up, down):  3.812E-04 1.331E-04

     total cpu time spent up to now is       13.3 secs

     total energy              =    -654.85912512 Ry
     estimated scf accuracy    <    1349.79682086 Ry

     total magnetization       =     2.06 Bohr mag/cell
     absolute magnetization    =    75.18 Bohr mag/cell

     iteration #  5     ecut=    60.00 Ry     beta= 0.70
     Davidson diagonalization with overlap
     ethr =  1.00E-02,  avg # of iterations =  3.1

     total cpu time spent up to now is       16.2 secs

     total energy              =    -679.02432326 Ry
     estimated scf accuracy    <       9.58254114 Ry

     total magnetization       =     2.72 Bohr mag/cell
     absolute magnetization    =     6.98 Bohr mag/cell

     iteration #  6     ecut=    60.00 Ry     beta= 0.70
     Davidson diagonalization with overlap
     ethr =  1.00E-02,  avg # of iterations =  2.1

     total cpu time spent up to now is       18.5 secs

     total energy              =    -678.05091565 Ry
     estimated scf accuracy    <     100.14445649 Ry

     total magnetization       =     1.89 Bohr mag/cell
     absolute magnetization    =    17.19 Bohr mag/cell

     iteration #  7     ecut=    60.00 Ry     beta= 0.70
     Davidson diagonalization with overlap
     ethr =  1.00E-02,  avg # of iterations =  2.0

     total cpu time spent up to now is       20.7 secs

     total energy              =    -678.69784585 Ry
     estimated scf accuracy    <      12.21751453 Ry

     total magnetization       =     2.06 Bohr mag/cell
     absolute magnetization    =     5.86 Bohr mag/cell

     iteration #  8     ecut=    60.00 Ry     beta= 0.70
     Davidson diagonalization with overlap
     ethr =  1.00E-02,  avg # of iterations =  2.0

     total cpu time spent up to now is       23.0 secs

     total energy              =    -679.21824544 Ry
     estimated scf accuracy    <      26.68903090 Ry

     total magnetization       =     1.27 Bohr mag/cell
     absolute magnetization    =     9.36 Bohr mag/cell

     iteration #  9     ecut=    60.00 Ry     beta= 0.70
     Davidson diagonalization with overlap
     ethr =  1.00E-02,  avg # of iterations =  1.0

     total cpu time spent up to now is       24.8 secs

     total energy              =    -678.73657925 Ry
     estimated scf accuracy    <      20.42318191 Ry

     total magnetization       =     1.28 Bohr mag/cell
     absolute magnetization    =     7.81 Bohr mag/cell

     iteration # 10     ecut=    60.00 Ry     beta= 0.70
     Davidson diagonalization with overlap
     ethr =  1.00E-02,  avg # of iterations =  2.0

     total cpu time spent up to now is       27.0 secs

     total energy              =    -679.00312003 Ry
     estimated scf accuracy    <       4.14862415 Ry

     total magnetization       =     1.29 Bohr mag/cell
     absolute magnetization    =     4.30 Bohr mag/cell

     iteration # 11     ecut=    60.00 Ry     beta= 0.70
     Davidson diagonalization with overlap
     ethr =  1.00E-02,  avg # of iterations =  1.0

     total cpu time spent up to now is       28.9 secs

     total energy              =    -679.09899118 Ry
     estimated scf accuracy    <       5.80047620 Ry

     total magnetization       =     1.32 Bohr mag/cell
     absolute magnetization    =     5.16 Bohr mag/cell

     iteration # 12     ecut=    60.00 Ry     beta= 0.70
     Davidson diagonalization with overlap
     ethr =  1.00E-02,  avg # of iterations =  1.0

     total cpu time spent up to now is       30.7 secs

     total energy              =    -678.71918521 Ry
     estimated scf accuracy    <      16.55037169 Ry

     total magnetization       =     1.38 Bohr mag/cell
     absolute magnetization    =     8.45 Bohr mag/cell

     iteration # 13     ecut=    60.00 Ry     beta= 0.70
     Davidson diagonalization with overlap
     ethr =  1.00E-02,  avg # of iterations =  2.0

     total cpu time spent up to now is       32.8 secs

     total energy              =    -678.94157559 Ry
     estimated scf accuracy    <       1.16500037 Ry

     total magnetization       =     1.51 Bohr mag/cell
     absolute magnetization    =     2.54 Bohr mag/cell

     iteration # 14     ecut=    60.00 Ry     beta= 0.70
     Davidson diagonalization with overlap
     ethr =  3.24E-03,  avg # of iterations =  1.0

     negative rho (up, down):  0.000E+00 5.772E-03

     total cpu time spent up to now is       34.6 secs

     total energy              =    -679.22297117 Ry
     estimated scf accuracy    <       1.70454768 Ry

     total magnetization       =     1.65 Bohr mag/cell
     absolute magnetization    =     3.43 Bohr mag/cell

     iteration # 15     ecut=    60.00 Ry     beta= 0.70
     Davidson diagonalization with overlap
     ethr =  3.24E-03,  avg # of iterations =  3.0

     total cpu time spent up to now is       37.5 secs

     total energy              =    -676.25060097 Ry
     estimated scf accuracy    <     307.57272480 Ry

     total magnetization       =     1.92 Bohr mag/cell
     absolute magnetization    =    35.80 Bohr mag/cell

     iteration # 16     ecut=    60.00 Ry     beta= 0.70
     Davidson diagonalization with overlap
     ethr =  3.24E-03,  avg # of iterations =  3.0

     total cpu time spent up to now is       40.4 secs

     total energy              =    -679.45507966 Ry
     estimated scf accuracy    <     114.06870852 Ry

     total magnetization       =     2.39 Bohr mag/cell
     absolute magnetization    =    18.77 Bohr mag/cell

     iteration # 17     ecut=    60.00 Ry     beta= 0.70
     Davidson diagonalization with overlap
     ethr =  3.24E-03,  avg # of iterations =  2.0

     negative rho (up, down):  0.000E+00 3.264E-05

     total cpu time spent up to now is       42.8 secs

     total energy              =    -679.73216417 Ry
     estimated scf accuracy    <      66.77242176 Ry

     total magnetization       =     2.26 Bohr mag/cell
     absolute magnetization    =    15.10 Bohr mag/cell

     iteration # 18     ecut=    60.00 Ry     beta= 0.70
     Davidson diagonalization with overlap
     ethr =  3.24E-03,  avg # of iterations =  2.3

     total cpu time spent up to now is       45.2 secs

     total energy              =    -678.54648441 Ry
     estimated scf accuracy    <     122.70731760 Ry

     total magnetization       =     1.98 Bohr mag/cell
     absolute magnetization    =    21.72 Bohr mag/cell

     iteration # 19     ecut=    60.00 Ry     beta= 0.70
     Davidson diagonalization with overlap
     ethr =  3.24E-03,  avg # of iterations =  2.2

     total cpu time spent up to now is       47.7 secs

     total energy              =    -679.73053646 Ry
     estimated scf accuracy    <      67.59218364 Ry

     total magnetization       =     1.84 Bohr mag/cell
     absolute magnetization    =    16.60 Bohr mag/cell

     iteration # 20     ecut=    60.00 Ry     beta= 0.70
     Davidson diagonalization with overlap
     ethr =  3.24E-03,  avg # of iterations =  1.2

     total cpu time spent up to now is       49.5 secs

     total energy              =    -679.23748611 Ry
     estimated scf accuracy    <      64.36017272 Ry

     total magnetization       =     1.87 Bohr mag/cell
     absolute magnetization    =    16.02 Bohr mag/cell

     iteration # 21     ecut=    60.00 Ry     beta= 0.70
     Davidson diagonalization with overlap
     ethr =  3.24E-03,  avg # of iterations =  2.5

     total cpu time spent up to now is       52.1 secs

     total energy              =    -679.87301526 Ry
     estimated scf accuracy    <     110.32669784 Ry

     total magnetization       =     1.63 Bohr mag/cell
     absolute magnetization    =    21.28 Bohr mag/cell

     iteration # 22     ecut=    60.00 Ry     beta= 0.70
     Davidson diagonalization with overlap
     ethr =  3.24E-03,  avg # of iterations =  2.0

     total cpu time spent up to now is       54.4 secs

     total energy              =    -680.15745873 Ry
     estimated scf accuracy    <     121.08215837 Ry

     total magnetization       =     2.02 Bohr mag/cell
     absolute magnetization    =    21.61 Bohr mag/cell

     iteration # 23     ecut=    60.00 Ry     beta= 0.70
     Davidson diagonalization with overlap
     ethr =  3.24E-03,  avg # of iterations =  2.0

     negative rho (up, down):  2.331E-01 2.168E-01

     total cpu time spent up to now is       56.6 secs

     total energy              =    -685.43789804 Ry
     estimated scf accuracy    <      95.49418414 Ry

     total magnetization       =     1.91 Bohr mag/cell
     absolute magnetization    =    19.65 Bohr mag/cell

     iteration # 24     ecut=    60.00 Ry     beta= 0.70
     Davidson diagonalization with overlap
     ethr =  3.24E-03,  avg # of iterations =  4.4

     negative rho (up, down):  4.686E-01 2.724E-01

     total cpu time spent up to now is       60.3 secs

     total energy              =    -741.60559843 Ry
     estimated scf accuracy    <    1829.47913903 Ry

     total magnetization       =     0.49 Bohr mag/cell
     absolute magnetization    =    69.73 Bohr mag/cell

     iteration # 25     ecut=    60.00 Ry     beta= 0.70
     Davidson diagonalization with overlap
     ethr =  3.24E-03,  avg # of iterations =  4.9

     negative rho (up, down):  2.150E-01 2.264E-01

     total cpu time spent up to now is       64.0 secs

     total energy              =    -701.59147296 Ry
     estimated scf accuracy    <    2297.34116067 Ry

     total magnetization       =     0.33 Bohr mag/cell
     absolute magnetization    =    64.85 Bohr mag/cell

     iteration # 26     ecut=    60.00 Ry     beta= 0.70
     Davidson diagonalization with overlap
     ethr =  3.24E-03,  avg # of iterations =  4.2

     negative rho (up, down):  2.038E-01 2.216E-01

     total cpu time spent up to now is       67.5 secs

     total energy              =    -727.80411741 Ry
     estimated scf accuracy    <    1827.34128735 Ry

     total magnetization       =     0.18 Bohr mag/cell
     absolute magnetization    =    71.54 Bohr mag/cell

     iteration # 27     ecut=    60.00 Ry     beta= 0.70
     Davidson diagonalization with overlap
     ethr =  3.24E-03,  avg # of iterations =  3.0

     negative rho (up, down):  1.772E-01 1.717E-01

     total cpu time spent up to now is       70.4 secs

     total energy              =    -715.41944317 Ry
     estimated scf accuracy    <    1890.32632215 Ry

     total magnetization       =     0.34 Bohr mag/cell
     absolute magnetization    =    67.24 Bohr mag/cell

     iteration # 28     ecut=    60.00 Ry     beta= 0.70
     Davidson diagonalization with overlap
     ethr =  3.24E-03,  avg # of iterations =  3.0

     negative rho (up, down):  7.693E-02 1.702E-01

     total cpu time spent up to now is       73.4 secs

     total energy              =    -687.56210976 Ry
     estimated scf accuracy    <    1715.77490489 Ry

     total magnetization       =     0.44 Bohr mag/cell
     absolute magnetization    =    71.38 Bohr mag/cell

     iteration # 29     ecut=    60.00 Ry     beta= 0.70
     Davidson diagonalization with overlap
     ethr =  3.24E-03,  avg # of iterations =  3.5

     negative rho (up, down):  2.721E-01 1.916E-01

     total cpu time spent up to now is       76.6 secs

     total energy              =    -703.28246504 Ry
     estimated scf accuracy    <    1434.49591237 Ry

     total magnetization       =     0.44 Bohr mag/cell
     absolute magnetization    =    70.97 Bohr mag/cell

     iteration # 30     ecut=    60.00 Ry     beta= 0.70
     Davidson diagonalization with overlap
     ethr =  3.24E-03,  avg # of iterations =  4.9

     negative rho (up, down):  6.198E-02 8.045E-02

     total cpu time spent up to now is       80.5 secs

     total energy              =    -644.73715824 Ry
     estimated scf accuracy    <    1709.30041626 Ry

     total magnetization       =     0.16 Bohr mag/cell
     absolute magnetization    =    47.79 Bohr mag/cell

     iteration # 31     ecut=    60.00 Ry     beta= 0.70
     Davidson diagonalization with overlap
     ethr =  3.24E-03,  avg # of iterations =  4.4

     negative rho (up, down):  4.039E-02 5.083E-01

     total cpu time spent up to now is       84.1 secs

     total energy              =    -688.30685036 Ry
     estimated scf accuracy    <    1102.35953823 Ry

     total magnetization       =     0.20 Bohr mag/cell
     absolute magnetization    =    66.51 Bohr mag/cell

     iteration # 32     ecut=    60.00 Ry     beta= 0.70
     Davidson diagonalization with overlap
     ethr =  3.24E-03,  avg # of iterations =  4.4

     negative rho (up, down):  4.114E+00 3.265E+00

     total cpu time spent up to now is       87.7 secs

     total energy              =    -747.45684937 Ry
     estimated scf accuracy    <    1674.63787641 Ry

     total magnetization       =     0.55 Bohr mag/cell
     absolute magnetization    =    80.44 Bohr mag/cell

     iteration # 33     ecut=    60.00 Ry     beta= 0.70
     Davidson diagonalization with overlap
     ethr =  3.24E-03,  avg # of iterations =  8.7

     negative rho (up, down):  4.266E+00 4.318E+00

     total cpu time spent up to now is       93.2 secs

     total energy              =    -680.80684139 Ry
     estimated scf accuracy    <    3756.50955181 Ry

     total magnetization       =     0.10 Bohr mag/cell
     absolute magnetization    =    68.73 Bohr mag/cell

     iteration # 34     ecut=    60.00 Ry     beta= 0.70
     Davidson diagonalization with overlap
     ethr =  3.24E-03,  avg # of iterations =  7.4

     negative rho (up, down):  3.571E+00 2.176E+00

     total cpu time spent up to now is       98.4 secs

     total energy              =    -960.81645075 Ry
     estimated scf accuracy    <    2842.73347236 Ry

     total magnetization       =    -0.37 Bohr mag/cell
     absolute magnetization    =   101.60 Bohr mag/cell

     iteration # 35     ecut=    60.00 Ry     beta= 0.70
     Davidson diagonalization with overlap
     ethr =  3.24E-03,  avg # of iterations =  7.9

     negative rho (up, down):  1.066E+00 2.357E+00

     total cpu time spent up to now is      103.5 secs

     total energy              =    -737.24305572 Ry
     estimated scf accuracy    <    3341.99223170 Ry

     total magnetization       =    -0.12 Bohr mag/cell
     absolute magnetization    =    56.24 Bohr mag/cell

     iteration # 36     ecut=    60.00 Ry     beta= 0.70
     Davidson diagonalization with overlap
     ethr =  3.24E-03,  avg # of iterations =  8.2

     negative rho (up, down):  1.848E+00 1.346E+00

     total cpu time spent up to now is      109.1 secs

     total energy              =    -591.92574898 Ry
     estimated scf accuracy    <    3431.54647359 Ry

     total magnetization       =     0.09 Bohr mag/cell
     absolute magnetization    =    45.72 Bohr mag/cell

     iteration # 37     ecut=    60.00 Ry     beta= 0.70
     Davidson diagonalization with overlap
     ethr =  3.24E-03,  avg # of iterations =  7.3

     negative rho (up, down):  1.576E+00 2.112E+00

     total cpu time spent up to now is      114.5 secs

     total energy              =    -789.75306895 Ry
     estimated scf accuracy    <    3426.62801848 Ry

     total magnetization       =     0.15 Bohr mag/cell
     absolute magnetization    =    84.13 Bohr mag/cell

     iteration # 38     ecut=    60.00 Ry     beta= 0.70
     Davidson diagonalization with overlap
     ethr =  3.24E-03,  avg # of iterations =  5.2

     negative rho (up, down):  8.530E-01 2.293E+00

     total cpu time spent up to now is      118.5 secs

     total energy              =    -821.26269467 Ry
     estimated scf accuracy    <    2921.72331136 Ry

     total magnetization       =     0.00 Bohr mag/cell
     absolute magnetization    =   102.88 Bohr mag/cell

     iteration # 39     ecut=    60.00 Ry     beta= 0.70
     Davidson diagonalization with overlap
     ethr =  3.24E-03,  avg # of iterations =  6.3

     negative rho (up, down):  1.976E+00 6.103E+00

     total cpu time spent up to now is      123.2 secs

     total energy              =    -654.06311180 Ry
     estimated scf accuracy    <    3395.14479041 Ry

     total magnetization       =     0.14 Bohr mag/cell
     absolute magnetization    =    77.75 Bohr mag/cell

     iteration # 40     ecut=    60.00 Ry     beta= 0.70
     Davidson diagonalization with overlap
     ethr =  3.24E-03,  avg # of iterations =  9.3

     negative rho (up, down):  1.350E+00 2.826E+00

     total cpu time spent up to now is      129.5 secs

     total energy              =    -579.85288580 Ry
     estimated scf accuracy    <    4297.80835269 Ry

     total magnetization       =     0.17 Bohr mag/cell
     absolute magnetization    =    44.67 Bohr mag/cell

     iteration # 41     ecut=    60.00 Ry     beta= 0.70
     Davidson diagonalization with overlap
     ethr =  3.24E-03,  avg # of iterations =  8.6

     negative rho (up, down):  2.015E+00 2.379E+00

     total cpu time spent up to now is      135.7 secs

     total energy              =    -722.70989507 Ry
     estimated scf accuracy    <    2892.15734004 Ry

     total magnetization       =     0.21 Bohr mag/cell
     absolute magnetization    =    73.84 Bohr mag/cell

     iteration # 42     ecut=    60.00 Ry     beta= 0.70
     Davidson diagonalization with overlap
     ethr =  3.24E-03,  avg # of iterations =  6.1

     negative rho (up, down):  4.028E+00 3.168E+00

     total cpu time spent up to now is      140.2 secs

     total energy              =    -636.91038130 Ry
     estimated scf accuracy    <    2862.46457919 Ry

     total magnetization       =     0.24 Bohr mag/cell
     absolute magnetization    =   117.00 Bohr mag/cell

     iteration # 43     ecut=    60.00 Ry     beta= 0.70
     Davidson diagonalization with overlap
     ethr =  3.24E-03,  avg # of iterations =  9.5

     negative rho (up, down):  2.379E+00 1.855E+00

     total cpu time spent up to now is      146.8 secs

     total energy              =    -567.24842416 Ry
     estimated scf accuracy    <    4684.53426604 Ry

     total magnetization       =     0.13 Bohr mag/cell
     absolute magnetization    =    42.17 Bohr mag/cell

     iteration # 44     ecut=    60.00 Ry     beta= 0.70
     Davidson diagonalization with overlap
     ethr =  3.24E-03,  avg # of iterations =  7.2

     negative rho (up, down):  4.039E+00 1.186E+00

     total cpu time spent up to now is      152.2 secs

     total energy              =    -855.78518806 Ry
     estimated scf accuracy    <    2759.79022569 Ry

     total magnetization       =     0.05 Bohr mag/cell
     absolute magnetization    =   120.80 Bohr mag/cell

     iteration # 45     ecut=    60.00 Ry     beta= 0.70
     Davidson diagonalization with overlap
     ethr =  3.24E-03,  avg # of iterations =  8.1

     negative rho (up, down):  4.347E+00 4.923E+00

     total cpu time spent up to now is      157.9 secs

     total energy              =    -302.98788763 Ry
     estimated scf accuracy    <    4284.42645597 Ry

     total magnetization       =    -0.09 Bohr mag/cell
     absolute magnetization    =    36.17 Bohr mag/cell

     iteration # 46     ecut=    60.00 Ry     beta= 0.70
     Davidson diagonalization with overlap
     ethr =  3.24E-03,  avg # of iterations = 11.8

     negative rho (up, down):  2.937E+00 2.497E+00

     total cpu time spent up to now is      165.3 secs

     total energy              =    -538.16137908 Ry
     estimated scf accuracy    <    5402.76870122 Ry

     total magnetization       =    -0.01 Bohr mag/cell
     absolute magnetization    =    16.46 Bohr mag/cell

     iteration # 47     ecut=    60.00 Ry     beta= 0.70
     Davidson diagonalization with overlap
     ethr =  3.24E-03,  avg # of iterations =  7.6

     negative rho (up, down):  2.959E+00 2.703E+00

     total cpu time spent up to now is      171.2 secs

     total energy              =    -832.99588161 Ry
     estimated scf accuracy    <    2816.78235350 Ry

     total magnetization       =     0.03 Bohr mag/cell
     absolute magnetization    =   115.08 Bohr mag/cell

     iteration # 48     ecut=    60.00 Ry     beta= 0.70
     Davidson diagonalization with overlap
     ethr =  3.24E-03,  avg # of iterations =  4.3

     negative rho (up, down):  3.763E+00 2.718E+00

     total cpu time spent up to now is      174.4 secs

     total energy              =    -780.50379849 Ry
     estimated scf accuracy    <    2937.16551857 Ry

     total magnetization       =     0.05 Bohr mag/cell
     absolute magnetization    =   110.89 Bohr mag/cell

     iteration # 49     ecut=    60.00 Ry     beta= 0.70
     Davidson diagonalization with overlap
     ethr =  3.24E-03,  avg # of iterations =  6.6

     negative rho (up, down):  2.062E+00 8.253E+00

     total cpu time spent up to now is      179.2 secs

     total energy              =    -701.76739100 Ry
     estimated scf accuracy    <    2965.13710395 Ry

     total magnetization       =    -0.09 Bohr mag/cell
     absolute magnetization    =    93.95 Bohr mag/cell

     iteration # 50     ecut=    60.00 Ry     beta= 0.70
     Davidson diagonalization with overlap
     ethr =  3.24E-03,  avg # of iterations = 10.2

     negative rho (up, down):  3.993E+00 5.579E+00

     total cpu time spent up to now is      186.0 secs

     total energy              =    -417.36825154 Ry
     estimated scf accuracy    <    4835.90876702 Ry

     total magnetization       =     0.04 Bohr mag/cell
     absolute magnetization    =    31.15 Bohr mag/cell

     iteration # 51     ecut=    60.00 Ry     beta= 0.70
     Davidson diagonalization with overlap
     ethr =  3.24E-03,  avg # of iterations = 10.6

     negative rho (up, down):  3.948E+00 3.330E+00

     total cpu time spent up to now is      192.8 secs

     total energy              =    -556.34737172 Ry
     estimated scf accuracy    <    3933.76588275 Ry

     total magnetization       =     0.23 Bohr mag/cell
     absolute magnetization    =    55.21 Bohr mag/cell

     iteration # 52     ecut=    60.00 Ry     beta= 0.70
     Davidson diagonalization with overlap
     ethr =  3.24E-03,  avg # of iterations =  6.9

     negative rho (up, down):  5.568E+00 4.041E+00

     total cpu time spent up to now is      198.1 secs

     total energy              =    -792.14352447 Ry
     estimated scf accuracy    <    2531.49031709 Ry

     total magnetization       =     0.54 Bohr mag/cell
     absolute magnetization    =   124.16 Bohr mag/cell

     iteration # 53     ecut=    60.00 Ry     beta= 0.70
     Davidson diagonalization with overlap
     ethr =  3.24E-03,  avg # of iterations =  8.8

     negative rho (up, down):  3.371E+00 3.411E+00

     total cpu time spent up to now is      204.3 secs

     total energy              =    -575.31922877 Ry
     estimated scf accuracy    <    4372.38910475 Ry

     total magnetization       =     0.02 Bohr mag/cell
     absolute magnetization    =    51.98 Bohr mag/cell

     iteration # 54     ecut=    60.00 Ry     beta= 0.70
     Davidson diagonalization with overlap
     ethr =  3.24E-03,  avg # of iterations =  7.1

     negative rho (up, down):  8.100E+00 4.342E+00

     total cpu time spent up to now is      209.7 secs

     total energy              =    -852.73814179 Ry
     estimated scf accuracy    <    2661.43431020 Ry

     total magnetization       =     0.15 Bohr mag/cell
     absolute magnetization    =   126.57 Bohr mag/cell

     iteration # 55     ecut=    60.00 Ry     beta= 0.70
     Davidson diagonalization with overlap
     ethr =  3.24E-03,  avg # of iterations =  9.5

     negative rho (up, down):  5.779E+00 6.324E+00

     total cpu time spent up to now is      216.1 secs

     total energy              =    -406.36398802 Ry
     estimated scf accuracy    <    4676.10196613 Ry

     total magnetization       =     0.00 Bohr mag/cell
     absolute magnetization    =    43.46 Bohr mag/cell

     iteration # 56     ecut=    60.00 Ry     beta= 0.70
     Davidson diagonalization with overlap
     ethr =  3.24E-03,  avg # of iterations = 11.3

     negative rho (up, down):  4.523E+00 4.504E+00

     total cpu time spent up to now is      223.2 secs

     total energy              =    -530.10258171 Ry
     estimated scf accuracy    <    5043.58708416 Ry

     total magnetization       =    -0.04 Bohr mag/cell
     absolute magnetization    =    15.08 Bohr mag/cell

     iteration # 57     ecut=    60.00 Ry     beta= 0.70
     Davidson diagonalization with overlap
     ethr =  3.24E-03,  avg # of iterations =  6.8

     negative rho (up, down):  5.179E+00 4.421E+00

     total cpu time spent up to now is      228.3 secs

     total energy              =    -782.96116599 Ry
     estimated scf accuracy    <    2467.71262257 Ry

     total magnetization       =    -0.13 Bohr mag/cell
     absolute magnetization    =   126.93 Bohr mag/cell

     iteration # 58     ecut=    60.00 Ry     beta= 0.70
     Davidson diagonalization with overlap
     ethr =  3.24E-03,  avg # of iterations =  5.7

     negative rho (up, down):  6.562E+00 4.458E+00

     total cpu time spent up to now is      232.6 secs

     total energy              =    -752.86061901 Ry
     estimated scf accuracy    <    2639.16384119 Ry

     total magnetization       =    -0.33 Bohr mag/cell
     absolute magnetization    =   108.82 Bohr mag/cell

     iteration # 59     ecut=    60.00 Ry     beta= 0.70
     Davidson diagonalization with overlap
     ethr =  3.24E-03,  avg # of iterations =  7.4

     negative rho (up, down):  4.482E+00 9.304E+00

     total cpu time spent up to now is      237.8 secs

     total energy              =    -689.73790653 Ry
     estimated scf accuracy    <    3018.43218247 Ry

     total magnetization       =    -0.03 Bohr mag/cell
     absolute magnetization    =    85.48 Bohr mag/cell

     iteration # 60     ecut=    60.00 Ry     beta= 0.70
     Davidson diagonalization with overlap
     ethr =  3.24E-03,  avg # of iterations =  7.9

     negative rho (up, down):  6.471E+00 8.790E+00

     total cpu time spent up to now is      243.7 secs

     total energy              =    -401.66910323 Ry
     estimated scf accuracy    <    3875.57396029 Ry

     total magnetization       =    -0.12 Bohr mag/cell
     absolute magnetization    =    47.45 Bohr mag/cell

     iteration # 61     ecut=    60.00 Ry     beta= 0.70
     Davidson diagonalization with overlap
     ethr =  3.24E-03,  avg # of iterations = 11.7

     negative rho (up, down):  5.851E+00 5.787E+00

     total cpu time spent up to now is      251.1 secs

     total energy              =    -563.65725032 Ry
     estimated scf accuracy    <    4879.47144615 Ry

     total magnetization       =    -0.03 Bohr mag/cell
     absolute magnetization    =    41.57 Bohr mag/cell

     iteration # 62     ecut=    60.00 Ry     beta= 0.70
     Davidson diagonalization with overlap
     ethr =  3.24E-03,  avg # of iterations =  7.8

     negative rho (up, down):  8.768E+00 6.835E+00

     total cpu time spent up to now is      257.0 secs

     total energy              =    -819.96946134 Ry
     estimated scf accuracy    <    2237.92473319 Ry

     total magnetization       =     0.16 Bohr mag/cell
     absolute magnetization    =   128.50 Bohr mag/cell

     iteration # 63     ecut=    60.00 Ry     beta= 0.70
     Davidson diagonalization with overlap
     ethr =  3.24E-03,  avg # of iterations =  8.6

     negative rho (up, down):  6.057E+00 5.947E+00

     total cpu time spent up to now is      262.9 secs

     total energy              =    -602.67697875 Ry
     estimated scf accuracy    <    3754.14855466 Ry

     total magnetization       =     0.22 Bohr mag/cell
     absolute magnetization    =    68.98 Bohr mag/cell

     iteration # 64     ecut=    60.00 Ry     beta= 0.70
     Davidson diagonalization with overlap
     ethr =  3.24E-03,  avg # of iterations =  7.0

     negative rho (up, down):  8.557E+00 5.235E+00

     total cpu time spent up to now is      268.3 secs

     total energy              =    -806.16810197 Ry
     estimated scf accuracy    <    2217.82586863 Ry

     total magnetization       =     0.03 Bohr mag/cell
     absolute magnetization    =   127.40 Bohr mag/cell

     iteration # 65     ecut=    60.00 Ry     beta= 0.70
     Davidson diagonalization with overlap
     ethr =  3.24E-03,  avg # of iterations =  8.5

     negative rho (up, down):  8.550E+00 8.287E+00

     total cpu time spent up to now is      274.0 secs

     total energy              =    -485.96112083 Ry
     estimated scf accuracy    <    3675.02209202 Ry

     total magnetization       =     0.23 Bohr mag/cell
     absolute magnetization    =    56.42 Bohr mag/cell

     iteration # 66     ecut=    60.00 Ry     beta= 0.70
     Davidson diagonalization with overlap
     ethr =  3.24E-03,  avg # of iterations =  9.7

     negative rho (up, down):  6.583E+00 6.507E+00

     total cpu time spent up to now is      280.4 secs

     total energy              =    -538.41139286 Ry
     estimated scf accuracy    <    4500.59383032 Ry

     total magnetization       =    -0.08 Bohr mag/cell
     absolute magnetization    =    25.63 Bohr mag/cell

     iteration # 67     ecut=    60.00 Ry     beta= 0.70
     Davidson diagonalization with overlap
     ethr =  3.24E-03,  avg # of iterations =  7.6

     negative rho (up, down):  8.359E+00 7.216E+00

     total cpu time spent up to now is      286.1 secs

     total energy              =    -770.87776449 Ry
     estimated scf accuracy    <    2100.02888577 Ry

     total magnetization       =     0.04 Bohr mag/cell
     absolute magnetization    =   128.30 Bohr mag/cell

     iteration # 68     ecut=    60.00 Ry     beta= 0.70
     Davidson diagonalization with overlap
     ethr =  3.24E-03,  avg # of iterations =  5.4

     negative rho (up, down):  9.900E+00 8.050E+00

     total cpu time spent up to now is      290.3 secs

     total energy              =    -762.65224053 Ry
     estimated scf accuracy    <    1962.53313684 Ry

     total magnetization       =    -0.11 Bohr mag/cell
     absolute magnetization    =   117.57 Bohr mag/cell

     iteration # 69     ecut=    60.00 Ry     beta= 0.70
     Davidson diagonalization with overlap
     ethr =  3.24E-03,  avg # of iterations =  7.6

     negative rho (up, down):  6.417E+00 1.308E+01

     total cpu time spent up to now is      295.6 secs

     total energy              =    -596.67487180 Ry
     estimated scf accuracy    <    2744.31642396 Ry

     total magnetization       =     0.04 Bohr mag/cell
     absolute magnetization    =    90.13 Bohr mag/cell

     iteration # 70     ecut=    60.00 Ry     beta= 0.70
     Davidson diagonalization with overlap
     ethr =  3.24E-03,  avg # of iterations =  9.8

     negative rho (up, down):  8.634E+00 9.212E+00

     total cpu time spent up to now is      302.2 secs

     total energy              =    -466.56076655 Ry
     estimated scf accuracy    <    4547.58923391 Ry

     total magnetization       =    -0.06 Bohr mag/cell
     absolute magnetization    =    27.52 Bohr mag/cell

     iteration # 71     ecut=    60.00 Ry     beta= 0.70
     Davidson diagonalization with overlap
     ethr =  3.24E-03,  avg # of iterations =  9.1

     negative rho (up, down):  8.527E+00 8.434E+00

     total cpu time spent up to now is      308.9 secs

     total energy              =    -694.80999675 Ry
     estimated scf accuracy    <    2269.59388425 Ry

     total magnetization       =     0.01 Bohr mag/cell
     absolute magnetization    =    99.31 Bohr mag/cell

     iteration # 72     ecut=    60.00 Ry     beta= 0.70
     Davidson diagonalization with overlap
     ethr =  3.24E-03,  avg # of iterations =  6.6

     negative rho (up, down):  1.100E+01 9.106E+00

     total cpu time spent up to now is      313.7 secs

     total energy              =    -802.11552865 Ry
     estimated scf accuracy    <    1703.56807100 Ry

     total magnetization       =     0.39 Bohr mag/cell
     absolute magnetization    =   130.84 Bohr mag/cell

     iteration # 73     ecut=    60.00 Ry     beta= 0.70
     Davidson diagonalization with overlap
     ethr =  3.24E-03,  avg # of iterations =  8.8

     negative rho (up, down):  8.901E+00 8.743E+00

     total cpu time spent up to now is      319.8 secs

     total energy              =    -564.13991837 Ry
     estimated scf accuracy    <    4113.50907994 Ry

     total magnetization       =     0.53 Bohr mag/cell
     absolute magnetization    =    58.26 Bohr mag/cell

     iteration # 74     ecut=    60.00 Ry     beta= 0.70
     Davidson diagonalization with overlap
     ethr =  3.24E-03,  avg # of iterations =  6.9

     negative rho (up, down):  1.199E+01 8.936E+00

     total cpu time spent up to now is      325.1 secs

     total energy              =    -777.84263739 Ry
     estimated scf accuracy    <    1649.68609176 Ry

     total magnetization       =     0.18 Bohr mag/cell
     absolute magnetization    =   130.70 Bohr mag/cell

     iteration # 75     ecut=    60.00 Ry     beta= 0.70
     Davidson diagonalization with overlap
     ethr =  3.24E-03,  avg # of iterations =  8.2

     negative rho (up, down):  1.058E+01 9.641E+00

     total cpu time spent up to now is      330.7 secs

     total energy              =    -506.36957818 Ry
     estimated scf accuracy    <    3406.94661303 Ry

     total magnetization       =    -0.12 Bohr mag/cell
     absolute magnetization    =    69.51 Bohr mag/cell

     iteration # 76     ecut=    60.00 Ry     beta= 0.70
     Davidson diagonalization with overlap
     ethr =  3.24E-03,  avg # of iterations =  9.4

     negative rho (up, down):  9.427E+00 9.302E+00

     total cpu time spent up to now is      337.0 secs

     total energy              =    -510.57407427 Ry
     estimated scf accuracy    <    4390.61605890 Ry

     total magnetization       =     0.04 Bohr mag/cell
     absolute magnetization    =    32.57 Bohr mag/cell

     iteration # 77     ecut=    60.00 Ry     beta= 0.70
     Davidson diagonalization with overlap
     ethr =  3.24E-03,  avg # of iterations =  6.1

     negative rho (up, down):  1.025E+01 9.962E+00

     total cpu time spent up to now is      342.0 secs

     total energy              =    -751.17455825 Ry
     estimated scf accuracy    <    1557.09106183 Ry

     total magnetization       =     0.10 Bohr mag/cell
     absolute magnetization    =   130.61 Bohr mag/cell

     iteration # 78     ecut=    60.00 Ry     beta= 0.70
     Davidson diagonalization with overlap
     ethr =  3.24E-03,  avg # of iterations =  5.2

     negative rho (up, down):  1.078E+01 9.537E+00

     total cpu time spent up to now is      346.1 secs

     total energy              =    -738.51674545 Ry
     estimated scf accuracy    <    1595.56195509 Ry

     total magnetization       =    -0.15 Bohr mag/cell
     absolute magnetization    =   122.90 Bohr mag/cell

     iteration # 79     ecut=    60.00 Ry     beta= 0.70
     Davidson diagonalization with overlap
     ethr =  3.24E-03,  avg # of iterations =  7.5

     negative rho (up, down):  9.225E+00 1.579E+01

     total cpu time spent up to now is      351.7 secs

     total energy              =    -595.71198268 Ry
     estimated scf accuracy    <    2706.06964582 Ry

     total magnetization       =    -0.02 Bohr mag/cell
     absolute magnetization    =    90.11 Bohr mag/cell

     iteration # 80     ecut=    60.00 Ry     beta= 0.70
     Davidson diagonalization with overlap
     ethr =  3.24E-03,  avg # of iterations =  9.2

     negative rho (up, down):  9.974E+00 1.044E+01

     total cpu time spent up to now is      358.0 secs

     total energy              =    -469.07347572 Ry
     estimated scf accuracy    <    4751.73455080 Ry

     total magnetization       =    -0.06 Bohr mag/cell
     absolute magnetization    =    30.04 Bohr mag/cell

     iteration # 81     ecut=    60.00 Ry     beta= 0.70
     Davidson diagonalization with overlap
     ethr =  3.24E-03,  avg # of iterations =  7.9

     negative rho (up, down):  1.070E+01 1.066E+01

     total cpu time spent up to now is      364.2 secs

     total energy              =    -703.93175425 Ry
     estimated scf accuracy    <    1729.86871135 Ry

     total magnetization       =    -0.02 Bohr mag/cell
     absolute magnetization    =   113.18 Bohr mag/cell

     iteration # 82     ecut=    60.00 Ry     beta= 0.70
     Davidson diagonalization with overlap
     ethr =  3.24E-03,  avg # of iterations =  5.5

     negative rho (up, down):  1.797E+01 1.691E+01

     total cpu time spent up to now is      368.5 secs

     total energy              =    -711.16365002 Ry
     estimated scf accuracy    <    1334.21289599 Ry

     total magnetization       =     0.52 Bohr mag/cell
     absolute magnetization    =   131.16 Bohr mag/cell

     iteration # 83     ecut=    60.00 Ry     beta= 0.70
     Davidson diagonalization with overlap
     ethr =  3.24E-03,  avg # of iterations =  8.1

     negative rho (up, down):  1.323E+01 1.326E+01

     total cpu time spent up to now is      374.1 secs

     total energy              =    -625.59376005 Ry
     estimated scf accuracy    <    2151.53578657 Ry

     total magnetization       =     0.34 Bohr mag/cell
     absolute magnetization    =    90.91 Bohr mag/cell

     iteration # 84     ecut=    60.00 Ry     beta= 0.70
     Davidson diagonalization with overlap
     ethr =  3.24E-03,  avg # of iterations =  7.2

     negative rho (up, down):  2.115E+01 1.881E+01

     total cpu time spent up to now is      379.3 secs

     total energy              =    -693.69209681 Ry
     estimated scf accuracy    <     961.43818238 Ry

     total magnetization       =    -0.06 Bohr mag/cell
     absolute magnetization    =   131.29 Bohr mag/cell

     iteration # 85     ecut=    60.00 Ry     beta= 0.70
     Davidson diagonalization with overlap
     ethr =  3.24E-03,  avg # of iterations =  7.7

     negative rho (up, down):  2.154E+01 2.128E+01

     total cpu time spent up to now is      384.8 secs

     total energy              =    -529.47522606 Ry
     estimated scf accuracy    <    2509.82083549 Ry

     total magnetization       =    -0.11 Bohr mag/cell
     absolute magnetization    =    87.90 Bohr mag/cell

     iteration # 86     ecut=    60.00 Ry     beta= 0.70
     Davidson diagonalization with overlap
     ethr =  3.24E-03,  avg # of iterations =  7.2

     negative rho (up, down):  1.741E+01 1.694E+01

     total cpu time spent up to now is      389.9 secs

     total energy              =    -665.88465935 Ry
     estimated scf accuracy    <     604.43131620 Ry

     total magnetization       =     0.32 Bohr mag/cell
     absolute magnetization    =   108.65 Bohr mag/cell

     iteration # 87     ecut=    60.00 Ry     beta= 0.70
     Davidson diagonalization with overlap
     ethr =  3.24E-03,  avg # of iterations =  5.3

     negative rho (up, down):  1.927E+01 1.924E+01

     total cpu time spent up to now is      394.1 secs

     total energy              =    -684.24844364 Ry
     estimated scf accuracy    <     509.78621177 Ry

     total magnetization       =    -0.13 Bohr mag/cell
     absolute magnetization    =   130.16 Bohr mag/cell

     iteration # 88     ecut=    60.00 Ry     beta= 0.70
     Davidson diagonalization with overlap
     ethr =  3.24E-03,  avg # of iterations =  5.0

     negative rho (up, down):  2.083E+01 2.052E+01

     total cpu time spent up to now is      397.9 secs

     total energy              =    -663.89682214 Ry
     estimated scf accuracy    <     477.82503395 Ry

     total magnetization       =    -0.36 Bohr mag/cell
     absolute magnetization    =   126.93 Bohr mag/cell

     iteration # 89     ecut=    60.00 Ry     beta= 0.70
     Davidson diagonalization with overlap
     ethr =  3.24E-03,  avg # of iterations =  5.8

     negative rho (up, down):  2.072E+01 2.375E+01

     total cpu time spent up to now is      402.3 secs

     total energy              =    -612.01115589 Ry
     estimated scf accuracy    <    1046.08848925 Ry

     total magnetization       =    -0.38 Bohr mag/cell
     absolute magnetization    =   114.89 Bohr mag/cell

     iteration # 90     ecut=    60.00 Ry     beta= 0.70
     Davidson diagonalization with overlap
     ethr =  3.24E-03,  avg # of iterations =  5.6

     negative rho (up, down):  2.088E+01 2.075E+01

     total cpu time spent up to now is      406.8 secs

     total energy              =    -597.30746537 Ry
     estimated scf accuracy    <    1289.97055914 Ry

     total magnetization       =    -0.12 Bohr mag/cell
     absolute magnetization    =    93.70 Bohr mag/cell

     iteration # 91     ecut=    60.00 Ry     beta= 0.70
     Davidson diagonalization with overlap
     ethr =  3.24E-03,  avg # of iterations =  5.7

     negative rho (up, down):  2.117E+01 2.107E+01

     total cpu time spent up to now is      411.1 secs

     total energy              =    -666.76847790 Ry
     estimated scf accuracy    <     274.73737458 Ry

     total magnetization       =    -0.16 Bohr mag/cell
     absolute magnetization    =   130.20 Bohr mag/cell

     iteration # 92     ecut=    60.00 Ry     beta= 0.70
     Davidson diagonalization with overlap
     ethr =  3.24E-03,  avg # of iterations =  4.1

     negative rho (up, down):  2.663E+01 2.619E+01

     total cpu time spent up to now is      414.3 secs

     total energy              =    -629.42067701 Ry
     estimated scf accuracy    <     200.80355046 Ry

     total magnetization       =     0.22 Bohr mag/cell
     absolute magnetization    =   131.31 Bohr mag/cell

     iteration # 93     ecut=    60.00 Ry     beta= 0.70
     Davidson diagonalization with overlap
     ethr =  3.24E-03,  avg # of iterations =  5.1

     negative rho (up, down):  2.436E+01 2.403E+01

     total cpu time spent up to now is      418.3 secs

     total energy              =    -638.56137187 Ry
     estimated scf accuracy    <     243.42077666 Ry

     total magnetization       =     0.00 Bohr mag/cell
     absolute magnetization    =   125.66 Bohr mag/cell

     iteration # 94     ecut=    60.00 Ry     beta= 0.70
     Davidson diagonalization with overlap
     ethr =  3.24E-03,  avg # of iterations =  5.0

     negative rho (up, down):  2.672E+01 2.644E+01

     total cpu time spent up to now is      422.1 secs

     total energy              =    -630.75506583 Ry
     estimated scf accuracy    <      56.59059858 Ry

     total magnetization       =     0.12 Bohr mag/cell
     absolute magnetization    =   131.25 Bohr mag/cell

     iteration # 95     ecut=    60.00 Ry     beta= 0.70
     Davidson diagonalization with overlap
     ethr =  3.24E-03,  avg # of iterations =  3.0

     negative rho (up, down):  2.694E+01 2.697E+01

     total cpu time spent up to now is      424.6 secs

     total energy              =    -628.10753627 Ry
     estimated scf accuracy    <      12.36997902 Ry

     total magnetization       =     0.10 Bohr mag/cell
     absolute magnetization    =   131.24 Bohr mag/cell

     iteration # 96     ecut=    60.00 Ry     beta= 0.70
     Davidson diagonalization with overlap
     ethr =  3.24E-03,  avg # of iterations =  3.0

     negative rho (up, down):  2.698E+01 2.709E+01

     total cpu time spent up to now is      427.2 secs

     total energy              =    -625.96676874 Ry
     estimated scf accuracy    <      18.58820021 Ry

     total magnetization       =     0.09 Bohr mag/cell
     absolute magnetization    =   130.97 Bohr mag/cell

     iteration # 97     ecut=    60.00 Ry     beta= 0.70
     Davidson diagonalization with overlap
     ethr =  3.24E-03,  avg # of iterations =  3.5

     negative rho (up, down):  2.754E+01 2.747E+01

     total cpu time spent up to now is      430.1 secs

     total energy              =    -623.78410884 Ry
     estimated scf accuracy    <       7.42337487 Ry

     total magnetization       =    -0.03 Bohr mag/cell
     absolute magnetization    =   131.29 Bohr mag/cell

     iteration # 98     ecut=    60.00 Ry     beta= 0.70
     Davidson diagonalization with overlap
     ethr =  3.24E-03,  avg # of iterations =  2.4

     negative rho (up, down):  2.745E+01 2.744E+01

     total cpu time spent up to now is      432.5 secs

     total energy              =    -624.57153998 Ry
     estimated scf accuracy    <       0.81811744 Ry

     total magnetization       =     0.23 Bohr mag/cell
     absolute magnetization    =   131.51 Bohr mag/cell

     iteration # 99     ecut=    60.00 Ry     beta= 0.70
     Davidson diagonalization with overlap
     ethr =  2.27E-03,  avg # of iterations =  2.0

     negative rho (up, down):  2.754E+01 2.760E+01

     total cpu time spent up to now is      434.8 secs

     total energy              =    -623.61518590 Ry
     estimated scf accuracy    <       1.72850367 Ry

     total magnetization       =     0.10 Bohr mag/cell
     absolute magnetization    =   131.54 Bohr mag/cell

     iteration #100     ecut=    60.00 Ry     beta= 0.70
     Davidson diagonalization with overlap
     ethr =  2.27E-03,  avg # of iterations =  2.7

     negative rho (up, down):  2.754E+01 2.755E+01

     total cpu time spent up to now is      437.2 secs

     total energy              =    -623.74693967 Ry
     estimated scf accuracy    <       4.14637647 Ry

     total magnetization       =     0.17 Bohr mag/cell
     absolute magnetization    =   131.48 Bohr mag/cell

     End of self-consistent calculation

     convergence NOT achieved after 100 iterations: stopping

     Writing config to output data dir ./out/pwscf.save/

     init_run     :      0.66s CPU      0.78s WALL (       1 calls)
     electrons    :    360.25s CPU    436.31s WALL (       1 calls)

     Called by init_run:
     wfcinit      :      0.52s CPU      0.62s WALL (       1 calls)
     potinit      :      0.03s CPU      0.03s WALL (       1 calls)
     hinit0       :      0.09s CPU      0.10s WALL (       1 calls)

     Called by electrons:
     c_bands      :    335.49s CPU    406.82s WALL (     100 calls)
     sum_band     :     22.35s CPU     26.88s WALL (     100 calls)
     v_of_rho     :      0.94s CPU      1.00s WALL (     101 calls)
     newd         :      1.28s CPU      1.32s WALL (     101 calls)
     mix_rho      :      0.13s CPU      0.20s WALL (     100 calls)

     Called by c_bands:
     init_us_2    :      1.02s CPU      1.25s WALL (   38190 calls)
     init_us_2:cp :      0.97s CPU      1.20s WALL (   38190 calls)
     cegterg      :    331.21s CPU    401.51s WALL (   19000 calls)

     Called by *egterg:
     cdiaghg      :     74.68s CPU     93.73s WALL (  128044 calls)
     h_psi        :    168.39s CPU    207.57s WALL (  128234 calls)
     s_psi        :     11.60s CPU     13.57s WALL (  128234 calls)
     g_psi        :      0.56s CPU      0.63s WALL (  109044 calls)

     Called by h_psi:
     h_psi:calbec :     11.63s CPU     14.49s WALL (  128234 calls)
     vloc_psi     :    144.65s CPU    178.50s WALL (  128234 calls)
     add_vuspsi   :     11.43s CPU     13.78s WALL (  128234 calls)

     General routines
     calbec       :     13.80s CPU     17.15s WALL (  147234 calls)
     fft          :      0.36s CPU      0.49s WALL (    2523 calls)
     ffts         :      0.02s CPU      0.03s WALL (     402 calls)
     fftw         :    154.29s CPU    190.18s WALL ( 4011994 calls)
     interpolate  :      0.04s CPU      0.05s WALL (     202 calls)
     davcio       :      0.00s CPU      0.00s WALL (      18 calls)

     Parallel routines

     PWSCF        :   6m 1.02s CPU   7m17.28s WALL


   This run was terminated on:  15:42:55  23Jun2023            

=------------------------------------------------------------------------------=
   JOB DONE.
=------------------------------------------------------------------------------=
Note: The following floating-point exceptions are signalling: IEEE_DENORMAL
Note: The following floating-point exceptions are signalling: IEEE_DENORMAL
Note: The following floating-point exceptions are signalling: IEEE_DENORMAL
Note: The following floating-point exceptions are signalling: IEEE_DENORMAL
Note: The following floating-point exceptions are signalling: IEEE_DENORMAL
