Ignoring PCI device with non-16bit domain.
Pass --enable-32bits-pci-domain to configure to support such devices
(warning: it would break the library ABI, don't enable unless really needed).

     Program PWSCF v.7.1 starts on 18Jun2023 at 14:56:33 

     This program is part of the open-source Quantum ESPRESSO suite
     for quantum simulation of materials; please cite
         "P. Giannozzi et al., J. Phys.:Condens. Matter 21 395502 (2009);
         "P. Giannozzi et al., J. Phys.:Condens. Matter 29 465901 (2017);
         "P. Giannozzi et al., J. Chem. Phys. 152 154105 (2020);
          URL http://www.quantum-espresso.org", 
     in publications or presentations arising from this work. More details at
     http://www.quantum-espresso.org/quote

     Parallel version (MPI), running on    24 processors

     MPI processes distributed on     1 nodes
     9595 MiB available memory on the printing compute node when the environment starts

     Reading input from Ni_triclinic_t_atoms.in

     Current dimensions of program PWSCF are:
     Max number of different atomic species (ntypx) = 10
     Max number of k-points (npk) =  40000
     Max angular momentum in pseudopotentials (lmaxx) =  4

     File ./out/pwscf.update deleted, as requested

     File ./out/pwscf.bfgs deleted, as requested

     K-points division:     npool     =       2
     R & G space division:  proc/nbgrp/npool/nimage =      12
     Subspace diagonalization in iterative solution of the eigenvalue problem:
     a serial algorithm will be used


     Parallelization info
     --------------------
     sticks:   dense  smooth     PW     G-vecs:    dense   smooth      PW
     Min          69      34     11                 1774      625     118
     Max          70      35     12                 1776      629     120
     Sum         833     417    137                21295     7529    1423

     Using Slab Decomposition



     bravais-lattice index     =            0
     lattice parameter (alat)  =       4.5984  a.u.
     unit-cell volume          =     119.8777 (a.u.)^3
     number of atoms/cell      =            1
     number of atomic types    =            1
     number of electrons       =        18.00
     number of Kohn-Sham states=           13
     kinetic-energy cutoff     =      60.0000  Ry
     charge density cutoff     =     480.0000  Ry
     scf convergence threshold =      1.0E-06
     mixing beta               =       0.7000
     number of iterations used =            8  TF        mixing
     energy convergence thresh.=      1.0E-05
     force convergence thresh. =      1.0E-04
     press convergence thresh. =      5.0E-01
     Exchange-correlation= PBE
                           (   1   4   3   4   0   0   0)
     nstep                     =           50


     celldm(1)=   4.598403  celldm(2)=   0.000000  celldm(3)=   0.000000
     celldm(4)=   0.000000  celldm(5)=   0.000000  celldm(6)=   0.000000

     crystal axes: (cart. coord. in units of alat)
               a(1) = (   1.000000   0.000000   0.000000 )  
               a(2) = (   0.066692   1.030811   0.000000 )  
               a(3) = (   0.312083  -0.014051   1.196020 )  

     reciprocal axes: (cart. coord. in units 2 pi/alat)
               b(1) = (  1.000000 -0.064699 -0.261695 )  
               b(2) = ( -0.000000  0.970110  0.011397 )  
               b(3) = (  0.000000  0.000000  0.836107 )  


     PseudoPot. # 1 for Ni read from file:
     /home/jmgoff/work/automation/qe_pseudos/Ni.upf
     MD5 check sum: caf20d35bef94d268ef04de15446df97
     Pseudo is Ultrasoft + core correction, Zval = 18.0
     Generated using 'atomic' code by A. Dal Corso  v.7.1
     Using radial grid of 1195 points,  6 beta functions with: 
                l(1) =   0
                l(2) =   0
                l(3) =   1
                l(4) =   1
                l(5) =   2
                l(6) =   2
     Q(r) pseudized with 0 coefficients 


     atomic species   valence    mass     pseudopotential
        Ni            18.00    58.69340     Ni( 1.00)

     Starting magnetic structure 
     atomic species   magnetization
        Ni           1.000

     No symmetry found



   Cartesian axes

     site n.     atom                  positions (alat units)
         1           Ni  tau(   1) = (   0.0000000   0.0000000   0.0000000  )

     number of k points=   253  Marzari-Vanderbilt smearing, width (Ry)=  0.0100

     Number of k-points >= 100: set verbosity='high' to print them.

     Dense  grid:    21295 G-vectors     FFT dimensions: (  36,  36,  40)

     Smooth grid:     7529 G-vectors     FFT dimensions: (  24,  24,  30)

     Estimated max dynamical RAM per process >      12.05 MB

     Estimated total dynamical RAM >     278.71 MB

     Check: negative core charge=   -0.000001
     Generating pointlists ...
     new r_m :   0.4125 (alat units)  1.8968 (a.u.) for type    1

     Initial potential from superposition of free atoms

     starting charge      17.9998, renormalised to      18.0000
     Starting wfcs are   10 randomized atomic wfcs +    3 random wfcs

     total cpu time spent up to now is        0.6 secs

     Self-consistent Calculation

     iteration #  1     ecut=    60.00 Ry     beta= 0.70
     Davidson diagonalization with overlap
     ethr =  1.00E-02,  avg # of iterations =  5.7

     negative rho (up, down):  0.000E+00 1.750E-04

     total cpu time spent up to now is        2.6 secs

     total energy              =    -335.78725060 Ry
     estimated scf accuracy    <       8.87128881 Ry

     total magnetization       =     6.78 Bohr mag/cell
     absolute magnetization    =     6.78 Bohr mag/cell

     iteration #  2     ecut=    60.00 Ry     beta= 0.70
     Davidson diagonalization with overlap
     ethr =  1.00E-02,  avg # of iterations =  2.6

     total cpu time spent up to now is        4.0 secs

     total energy              =    -338.41614075 Ry
     estimated scf accuracy    <       9.77330554 Ry

     total magnetization       =     0.29 Bohr mag/cell
     absolute magnetization    =     0.73 Bohr mag/cell

     iteration #  3     ecut=    60.00 Ry     beta= 0.70
     Davidson diagonalization with overlap
     ethr =  1.00E-02,  avg # of iterations =  2.0

     negative rho (up, down):  0.000E+00 6.017E-03

     total cpu time spent up to now is        5.2 secs

     total energy              =    -339.68283080 Ry
     estimated scf accuracy    <       1.50658052 Ry

     total magnetization       =     1.54 Bohr mag/cell
     absolute magnetization    =     1.90 Bohr mag/cell

     iteration #  4     ecut=    60.00 Ry     beta= 0.70
     Davidson diagonalization with overlap
     ethr =  8.37E-03,  avg # of iterations =  3.0

     total cpu time spent up to now is        6.6 secs

     total energy              =    -331.21977586 Ry
     estimated scf accuracy    <     494.22761253 Ry

     total magnetization       =     0.93 Bohr mag/cell
     absolute magnetization    =    32.16 Bohr mag/cell

     iteration #  5     ecut=    60.00 Ry     beta= 0.70
     Davidson diagonalization with overlap
     ethr =  8.37E-03,  avg # of iterations =  2.7

     total cpu time spent up to now is        7.9 secs

     total energy              =    -339.54652799 Ry
     estimated scf accuracy    <       1.71948283 Ry

     total magnetization       =     1.07 Bohr mag/cell
     absolute magnetization    =     2.33 Bohr mag/cell

     iteration #  6     ecut=    60.00 Ry     beta= 0.70
     Davidson diagonalization with overlap
     ethr =  8.37E-03,  avg # of iterations =  2.0

     total cpu time spent up to now is        9.1 secs

     total energy              =    -339.06236850 Ry
     estimated scf accuracy    <      67.50577848 Ry

     total magnetization       =     0.75 Bohr mag/cell
     absolute magnetization    =    11.93 Bohr mag/cell

     iteration #  7     ecut=    60.00 Ry     beta= 0.70
     Davidson diagonalization with overlap
     ethr =  8.37E-03,  avg # of iterations =  2.0

     total cpu time spent up to now is       10.2 secs

     total energy              =    -339.33619651 Ry
     estimated scf accuracy    <       9.28777638 Ry

     total magnetization       =     0.82 Bohr mag/cell
     absolute magnetization    =     3.50 Bohr mag/cell

     iteration #  8     ecut=    60.00 Ry     beta= 0.70
     Davidson diagonalization with overlap
     ethr =  8.37E-03,  avg # of iterations =  1.5

     total cpu time spent up to now is       11.3 secs

     total energy              =    -339.55989614 Ry
     estimated scf accuracy    <       2.80237811 Ry

     total magnetization       =     0.73 Bohr mag/cell
     absolute magnetization    =     2.49 Bohr mag/cell

     iteration #  9     ecut=    60.00 Ry     beta= 0.70
     Davidson diagonalization with overlap
     ethr =  8.37E-03,  avg # of iterations =  1.0

     total cpu time spent up to now is       12.2 secs

     total energy              =    -339.48937418 Ry
     estimated scf accuracy    <       4.50669392 Ry

     total magnetization       =     0.73 Bohr mag/cell
     absolute magnetization    =     3.27 Bohr mag/cell

     iteration # 10     ecut=    60.00 Ry     beta= 0.70
     Davidson diagonalization with overlap
     ethr =  8.37E-03,  avg # of iterations =  1.0

     total cpu time spent up to now is       13.1 secs

     total energy              =    -339.49033171 Ry
     estimated scf accuracy    <       1.54355476 Ry

     total magnetization       =     0.74 Bohr mag/cell
     absolute magnetization    =     2.07 Bohr mag/cell

     iteration # 11     ecut=    60.00 Ry     beta= 0.70
     Davidson diagonalization with overlap
     ethr =  8.37E-03,  avg # of iterations =  1.0

     total cpu time spent up to now is       14.1 secs

     total energy              =    -339.50749890 Ry
     estimated scf accuracy    <       0.10239616 Ry

     total magnetization       =     0.82 Bohr mag/cell
     absolute magnetization    =     1.08 Bohr mag/cell

     iteration # 12     ecut=    60.00 Ry     beta= 0.70
     Davidson diagonalization with overlap
     ethr =  5.69E-04,  avg # of iterations =  1.0

     total cpu time spent up to now is       15.0 secs

     total energy              =    -339.50784718 Ry
     estimated scf accuracy    <       0.07749748 Ry

     total magnetization       =     0.84 Bohr mag/cell
     absolute magnetization    =     1.01 Bohr mag/cell

     iteration # 13     ecut=    60.00 Ry     beta= 0.70
     Davidson diagonalization with overlap
     ethr =  4.31E-04,  avg # of iterations =  1.1

     total cpu time spent up to now is       15.9 secs

     total energy              =    -339.50979513 Ry
     estimated scf accuracy    <       0.01019437 Ry

     total magnetization       =     0.85 Bohr mag/cell
     absolute magnetization    =     0.97 Bohr mag/cell

     iteration # 14     ecut=    60.00 Ry     beta= 0.70
     Davidson diagonalization with overlap
     ethr =  5.66E-05,  avg # of iterations =  1.2

     total cpu time spent up to now is       16.8 secs

     total energy              =    -339.50997066 Ry
     estimated scf accuracy    <       0.00102024 Ry

     total magnetization       =     0.86 Bohr mag/cell
     absolute magnetization    =     0.97 Bohr mag/cell

     iteration # 15     ecut=    60.00 Ry     beta= 0.70
     Davidson diagonalization with overlap
     ethr =  5.67E-06,  avg # of iterations =  2.5

     total cpu time spent up to now is       18.0 secs

     total energy              =    -339.51002899 Ry
     estimated scf accuracy    <       0.00103501 Ry

     total magnetization       =     0.87 Bohr mag/cell
     absolute magnetization    =     0.98 Bohr mag/cell

     iteration # 16     ecut=    60.00 Ry     beta= 0.70
     Davidson diagonalization with overlap
     ethr =  5.67E-06,  avg # of iterations =  1.3

     total cpu time spent up to now is       19.0 secs

     total energy              =    -339.51008457 Ry
     estimated scf accuracy    <       0.00029151 Ry

     total magnetization       =     0.87 Bohr mag/cell
     absolute magnetization    =     0.97 Bohr mag/cell

     iteration # 17     ecut=    60.00 Ry     beta= 0.70
     Davidson diagonalization with overlap
     ethr =  1.62E-06,  avg # of iterations =  2.1

     total cpu time spent up to now is       20.1 secs

     total energy              =    -339.51002893 Ry
     estimated scf accuracy    <       0.00307698 Ry

     total magnetization       =     0.87 Bohr mag/cell
     absolute magnetization    =     0.97 Bohr mag/cell

     iteration # 18     ecut=    60.00 Ry     beta= 0.70
     Davidson diagonalization with overlap
     ethr =  1.62E-06,  avg # of iterations =  2.0

     total cpu time spent up to now is       21.2 secs

     total energy              =    -339.51006732 Ry
     estimated scf accuracy    <       0.00013235 Ry

     total magnetization       =     0.87 Bohr mag/cell
     absolute magnetization    =     0.97 Bohr mag/cell

     iteration # 19     ecut=    60.00 Ry     beta= 0.70
     Davidson diagonalization with overlap
     ethr =  7.35E-07,  avg # of iterations =  1.0

     total cpu time spent up to now is       22.1 secs

     total energy              =    -339.51006989 Ry
     estimated scf accuracy    <       0.00003564 Ry

     total magnetization       =     0.87 Bohr mag/cell
     absolute magnetization    =     0.98 Bohr mag/cell

     iteration # 20     ecut=    60.00 Ry     beta= 0.70
     Davidson diagonalization with overlap
     ethr =  1.98E-07,  avg # of iterations =  2.0

     total cpu time spent up to now is       23.2 secs

     total energy              =    -339.51006802 Ry
     estimated scf accuracy    <       0.00019256 Ry

     total magnetization       =     0.87 Bohr mag/cell
     absolute magnetization    =     0.98 Bohr mag/cell

     iteration # 21     ecut=    60.00 Ry     beta= 0.70
     Davidson diagonalization with overlap
     ethr =  1.98E-07,  avg # of iterations =  1.9

     total cpu time spent up to now is       24.3 secs

     total energy              =    -339.51007113 Ry
     estimated scf accuracy    <       0.00003763 Ry

     total magnetization       =     0.87 Bohr mag/cell
     absolute magnetization    =     0.98 Bohr mag/cell

     iteration # 22     ecut=    60.00 Ry     beta= 0.70
     Davidson diagonalization with overlap
     ethr =  1.98E-07,  avg # of iterations =  1.0

     total cpu time spent up to now is       25.2 secs

     total energy              =    -339.51007146 Ry
     estimated scf accuracy    <       0.00011741 Ry

     total magnetization       =     0.87 Bohr mag/cell
     absolute magnetization    =     0.98 Bohr mag/cell

     iteration # 23     ecut=    60.00 Ry     beta= 0.70
     Davidson diagonalization with overlap
     ethr =  1.98E-07,  avg # of iterations =  1.1

     total cpu time spent up to now is       26.1 secs

     total energy              =    -339.51006775 Ry
     estimated scf accuracy    <       0.00014191 Ry

     total magnetization       =     0.87 Bohr mag/cell
     absolute magnetization    =     0.98 Bohr mag/cell

     iteration # 24     ecut=    60.00 Ry     beta= 0.70
     Davidson diagonalization with overlap
     ethr =  1.98E-07,  avg # of iterations =  1.5

     total cpu time spent up to now is       27.2 secs

     total energy              =    -339.51007037 Ry
     estimated scf accuracy    <       0.00000365 Ry

     total magnetization       =     0.87 Bohr mag/cell
     absolute magnetization    =     0.98 Bohr mag/cell

     iteration # 25     ecut=    60.00 Ry     beta= 0.70
     Davidson diagonalization with overlap
     ethr =  2.03E-08,  avg # of iterations =  1.0

     Magnetic moment per site  (integrated on atomic sphere of radius R)
     atom   1 (R=0.413)  charge= 16.3722  magn=  0.9202

     total cpu time spent up to now is       28.1 secs

     End of self-consistent calculation

     Number of k-points >= 100: set verbosity='high' to print the bands.

     the Fermi energy is     9.3250 ev

!    total energy              =    -339.51007054 Ry
     estimated scf accuracy    <       0.00000026 Ry
     smearing contrib. (-TS)   =      -0.00000745 Ry
     internal energy E=F+TS    =    -339.51006309 Ry

     The total energy is F=E-TS. E is the sum of the following terms:
     one-electron contribution =    -252.79339676 Ry
     hartree contribution      =     132.39591706 Ry
     xc contribution           =     -34.18625822 Ry
     ewald contribution        =    -184.92632516 Ry

     total magnetization       =     0.87 Bohr mag/cell
     absolute magnetization    =     0.98 Bohr mag/cell

     convergence has been achieved in  25 iterations

     Forces acting on atoms (cartesian axes, Ry/au):

     atom    1 type  1   force =     0.00000000    0.00000000    0.00000000

     Total force =     0.000000     Total SCF correction =     0.000482


     Computing stress (Cartesian axis) and pressure

          total   stress  (Ry/bohr**3)                   (kbar)     P=     -203.15
  -0.00119012   0.00006642  -0.00000328         -175.07        9.77       -0.48
   0.00006642  -0.00122300   0.00001214            9.77     -179.91        1.79
  -0.00000328   0.00001214  -0.00172978           -0.48        1.79     -254.46


     BFGS Geometry Optimization
     Energy error            =      0.0E+00 Ry
     Gradient error          =      0.0E+00 Ry/Bohr
     Cell gradient error     =      2.5E+02 kbar

     number of scf cycles    =   1
     number of bfgs steps    =   0

     enthalpy           new  =    -339.5100705398 Ry

     new trust radius        =       0.0946984170 bohr
     new conv_thr            =       0.0000010000 Ry

     new unit-cell volume =    107.87844 a.u.^3 (    15.98594 Ang^3 )
     density =      6.09678 g/cm^3

CELL_PARAMETERS (bohr)
   4.461586392   0.007635463  -0.000376627
   0.305423310   4.595667318   0.001413574
   1.391827481  -0.058585874   5.261806975

ATOMIC_POSITIONS (crystal)
Ni            0.0000000000        0.0000000000        0.0000000000



     Writing config-only to output data dir ./out/pwscf.save/
     NEW-OLD atomic charge density approx. for the potential
     extrapolated charge   15.99789, renormalised to   18.00000
     Generating pointlists ...
     new r_m :   0.4002 (alat units)  1.8404 (a.u.) for type    1

     total cpu time spent up to now is       28.7 secs

     Self-consistent Calculation

     iteration #  1     ecut=    60.00 Ry     beta= 0.70
     Davidson diagonalization with overlap
     ethr =  1.00E-06,  avg # of iterations =  9.7

     total cpu time spent up to now is       32.2 secs

     total energy              =    -331.12660210 Ry
     estimated scf accuracy    <       9.73165087 Ry

     total magnetization       =     0.00 Bohr mag/cell
     absolute magnetization    =     0.07 Bohr mag/cell

     iteration #  2     ecut=    60.00 Ry     beta= 0.70
     Davidson diagonalization with overlap
     ethr =  1.00E-02,  avg # of iterations =  4.6

     total cpu time spent up to now is       34.0 secs

     total energy              =    -338.92756563 Ry
     estimated scf accuracy    <      36.06772243 Ry

     total magnetization       =     0.08 Bohr mag/cell
     absolute magnetization    =     0.21 Bohr mag/cell

     iteration #  3     ecut=    60.00 Ry     beta= 0.70
     Davidson diagonalization with overlap
     ethr =  1.00E-02,  avg # of iterations =  3.6

     total cpu time spent up to now is       35.5 secs

     total energy              =    -340.44856849 Ry
     estimated scf accuracy    <       7.48030282 Ry

     total magnetization       =     0.34 Bohr mag/cell
     absolute magnetization    =     1.42 Bohr mag/cell

     iteration #  4     ecut=    60.00 Ry     beta= 0.70
     Davidson diagonalization with overlap
     ethr =  1.00E-02,  avg # of iterations =  2.0

     total cpu time spent up to now is       36.6 secs

     total energy              =    -339.04610803 Ry
     estimated scf accuracy    <      17.57171463 Ry

     total magnetization       =     0.34 Bohr mag/cell
     absolute magnetization    =     5.44 Bohr mag/cell

     iteration #  5     ecut=    60.00 Ry     beta= 0.70
     Davidson diagonalization with overlap
     ethr =  1.00E-02,  avg # of iterations =  2.0

     total cpu time spent up to now is       37.8 secs

     total energy              =    -339.60145068 Ry
     estimated scf accuracy    <       0.54116269 Ry

     total magnetization       =     0.62 Bohr mag/cell
     absolute magnetization    =     0.71 Bohr mag/cell

     iteration #  6     ecut=    60.00 Ry     beta= 0.70
     Davidson diagonalization with overlap
     ethr =  3.01E-03,  avg # of iterations =  1.0

     total cpu time spent up to now is       38.7 secs

     total energy              =    -339.61943508 Ry
     estimated scf accuracy    <       0.70547845 Ry

     total magnetization       =     0.69 Bohr mag/cell
     absolute magnetization    =     0.98 Bohr mag/cell

     iteration #  7     ecut=    60.00 Ry     beta= 0.70
     Davidson diagonalization with overlap
     ethr =  3.01E-03,  avg # of iterations =  1.0

     total cpu time spent up to now is       39.6 secs

     total energy              =    -339.61054999 Ry
     estimated scf accuracy    <       1.00598819 Ry

     total magnetization       =     0.70 Bohr mag/cell
     absolute magnetization    =     1.37 Bohr mag/cell

     iteration #  8     ecut=    60.00 Ry     beta= 0.70
     Davidson diagonalization with overlap
     ethr =  3.01E-03,  avg # of iterations =  1.0

     total cpu time spent up to now is       40.5 secs

     total energy              =    -339.60851682 Ry
     estimated scf accuracy    <       0.57642366 Ry

     total magnetization       =     0.80 Bohr mag/cell
     absolute magnetization    =     0.83 Bohr mag/cell

     iteration #  9     ecut=    60.00 Ry     beta= 0.70
     Davidson diagonalization with overlap
     ethr =  3.01E-03,  avg # of iterations =  1.0

     total cpu time spent up to now is       41.4 secs

     total energy              =    -339.60577538 Ry
     estimated scf accuracy    <       0.59532372 Ry

     total magnetization       =     0.84 Bohr mag/cell
     absolute magnetization    =     1.05 Bohr mag/cell

     iteration # 10     ecut=    60.00 Ry     beta= 0.70
     Davidson diagonalization with overlap
     ethr =  3.01E-03,  avg # of iterations =  1.0

     total cpu time spent up to now is       42.3 secs

     total energy              =    -339.48823188 Ry
     estimated scf accuracy    <       0.49651358 Ry

     total magnetization       =     0.85 Bohr mag/cell
     absolute magnetization    =     0.89 Bohr mag/cell

     iteration # 11     ecut=    60.00 Ry     beta= 0.70
     Davidson diagonalization with overlap
     ethr =  2.76E-03,  avg # of iterations =  1.1

     total cpu time spent up to now is       43.3 secs

     total energy              =    -339.51531083 Ry
     estimated scf accuracy    <       0.11006418 Ry

     total magnetization       =     0.96 Bohr mag/cell
     absolute magnetization    =     1.13 Bohr mag/cell

     iteration # 12     ecut=    60.00 Ry     beta= 0.70
     Davidson diagonalization with overlap
     ethr =  6.11E-04,  avg # of iterations =  1.8

     total cpu time spent up to now is       44.3 secs

     total energy              =    -339.52485728 Ry
     estimated scf accuracy    <       0.00926232 Ry

     total magnetization       =     0.86 Bohr mag/cell
     absolute magnetization    =     0.97 Bohr mag/cell

     iteration # 13     ecut=    60.00 Ry     beta= 0.70
     Davidson diagonalization with overlap
     ethr =  5.15E-05,  avg # of iterations =  2.6

     total cpu time spent up to now is       45.5 secs

     total energy              =    -339.52506432 Ry
     estimated scf accuracy    <       0.00925403 Ry

     total magnetization       =     0.85 Bohr mag/cell
     absolute magnetization    =     0.95 Bohr mag/cell

     iteration # 14     ecut=    60.00 Ry     beta= 0.70
     Davidson diagonalization with overlap
     ethr =  5.14E-05,  avg # of iterations =  1.5

     total cpu time spent up to now is       46.6 secs

     total energy              =    -339.52528156 Ry
     estimated scf accuracy    <       0.01656107 Ry

     total magnetization       =     0.85 Bohr mag/cell
     absolute magnetization    =     0.95 Bohr mag/cell

     iteration # 15     ecut=    60.00 Ry     beta= 0.70
     Davidson diagonalization with overlap
     ethr =  5.14E-05,  avg # of iterations =  1.5

     total cpu time spent up to now is       47.7 secs

     total energy              =    -339.52564285 Ry
     estimated scf accuracy    <       0.00027252 Ry

     total magnetization       =     0.84 Bohr mag/cell
     absolute magnetization    =     0.94 Bohr mag/cell

     iteration # 16     ecut=    60.00 Ry     beta= 0.70
     Davidson diagonalization with overlap
     ethr =  1.51E-06,  avg # of iterations =  2.5

     total cpu time spent up to now is       48.9 secs

     total energy              =    -339.52569162 Ry
     estimated scf accuracy    <       0.00070082 Ry

     total magnetization       =     0.84 Bohr mag/cell
     absolute magnetization    =     0.94 Bohr mag/cell

     iteration # 17     ecut=    60.00 Ry     beta= 0.70
     Davidson diagonalization with overlap
     ethr =  1.51E-06,  avg # of iterations =  2.0

     total cpu time spent up to now is       50.0 secs

     total energy              =    -339.52546350 Ry
     estimated scf accuracy    <       0.00956481 Ry

     total magnetization       =     0.84 Bohr mag/cell
     absolute magnetization    =     0.95 Bohr mag/cell

     iteration # 18     ecut=    60.00 Ry     beta= 0.70
     Davidson diagonalization with overlap
     ethr =  1.51E-06,  avg # of iterations =  2.0

     total cpu time spent up to now is       51.1 secs

     total energy              =    -339.52565510 Ry
     estimated scf accuracy    <       0.00010772 Ry

     total magnetization       =     0.84 Bohr mag/cell
     absolute magnetization    =     0.94 Bohr mag/cell

     iteration # 19     ecut=    60.00 Ry     beta= 0.70
     Davidson diagonalization with overlap
     ethr =  5.98E-07,  avg # of iterations =  2.0

     total cpu time spent up to now is       52.3 secs

     total energy              =    -339.52564793 Ry
     estimated scf accuracy    <       0.00099566 Ry

     total magnetization       =     0.84 Bohr mag/cell
     absolute magnetization    =     0.94 Bohr mag/cell

     iteration # 20     ecut=    60.00 Ry     beta= 0.70
     Davidson diagonalization with overlap
     ethr =  5.98E-07,  avg # of iterations =  2.0

     total cpu time spent up to now is       53.3 secs

     total energy              =    -339.52565573 Ry
     estimated scf accuracy    <       0.00014020 Ry

     total magnetization       =     0.84 Bohr mag/cell
     absolute magnetization    =     0.94 Bohr mag/cell

     iteration # 21     ecut=    60.00 Ry     beta= 0.70
     Davidson diagonalization with overlap
     ethr =  5.98E-07,  avg # of iterations =  1.5

     total cpu time spent up to now is       54.4 secs

     total energy              =    -339.52566048 Ry
     estimated scf accuracy    <       0.00003185 Ry

     total magnetization       =     0.84 Bohr mag/cell
     absolute magnetization    =     0.94 Bohr mag/cell

     iteration # 22     ecut=    60.00 Ry     beta= 0.70
     Davidson diagonalization with overlap
     ethr =  1.77E-07,  avg # of iterations =  1.0

     total cpu time spent up to now is       55.3 secs

     total energy              =    -339.52566154 Ry
     estimated scf accuracy    <       0.00005650 Ry

     total magnetization       =     0.84 Bohr mag/cell
     absolute magnetization    =     0.94 Bohr mag/cell

     iteration # 23     ecut=    60.00 Ry     beta= 0.70
     Davidson diagonalization with overlap
     ethr =  1.77E-07,  avg # of iterations =  1.0

     total cpu time spent up to now is       56.2 secs

     total energy              =    -339.52565938 Ry
     estimated scf accuracy    <       0.00011521 Ry

     total magnetization       =     0.84 Bohr mag/cell
     absolute magnetization    =     0.94 Bohr mag/cell

     iteration # 24     ecut=    60.00 Ry     beta= 0.70
     Davidson diagonalization with overlap
     ethr =  1.77E-07,  avg # of iterations =  1.0

     total cpu time spent up to now is       57.1 secs

     total energy              =    -339.52566010 Ry
     estimated scf accuracy    <       0.00002331 Ry

     total magnetization       =     0.84 Bohr mag/cell
     absolute magnetization    =     0.94 Bohr mag/cell

     iteration # 25     ecut=    60.00 Ry     beta= 0.70
     Davidson diagonalization with overlap
     ethr =  1.30E-07,  avg # of iterations =  1.0

     total cpu time spent up to now is       58.0 secs

     total energy              =    -339.52566039 Ry
     estimated scf accuracy    <       0.00000750 Ry

     total magnetization       =     0.84 Bohr mag/cell
     absolute magnetization    =     0.94 Bohr mag/cell

     iteration # 26     ecut=    60.00 Ry     beta= 0.70
     Davidson diagonalization with overlap
     ethr =  4.17E-08,  avg # of iterations =  1.0

     total cpu time spent up to now is       58.9 secs

     total energy              =    -339.52566042 Ry
     estimated scf accuracy    <       0.00000455 Ry

     total magnetization       =     0.84 Bohr mag/cell
     absolute magnetization    =     0.94 Bohr mag/cell

     iteration # 27     ecut=    60.00 Ry     beta= 0.70
     Davidson diagonalization with overlap
     ethr =  2.53E-08,  avg # of iterations =  1.0

     total cpu time spent up to now is       59.9 secs

     total energy              =    -339.52566043 Ry
     estimated scf accuracy    <       0.00000145 Ry

     total magnetization       =     0.84 Bohr mag/cell
     absolute magnetization    =     0.94 Bohr mag/cell

     iteration # 28     ecut=    60.00 Ry     beta= 0.70
     Davidson diagonalization with overlap
     ethr =  8.08E-09,  avg # of iterations =  1.1

     Magnetic moment per site  (integrated on atomic sphere of radius R)
     atom   1 (R=0.400)  charge= 16.2808  magn=  0.8900

     total cpu time spent up to now is       60.8 secs

     End of self-consistent calculation

     Number of k-points >= 100: set verbosity='high' to print the bands.

     the Fermi energy is    10.8599 ev

!    total energy              =    -339.52566065 Ry
     estimated scf accuracy    <       0.00000036 Ry
     smearing contrib. (-TS)   =       0.00006108 Ry
     internal energy E=F+TS    =    -339.52572173 Ry

     The total energy is F=E-TS. E is the sum of the following terms:
     one-electron contribution =    -240.81188744 Ry
     hartree contribution      =     127.36667433 Ry
     xc contribution           =     -34.21824008 Ry
     ewald contribution        =    -191.86226854 Ry

     total magnetization       =     0.84 Bohr mag/cell
     absolute magnetization    =     0.94 Bohr mag/cell

     convergence has been achieved in  28 iterations

     Forces acting on atoms (cartesian axes, Ry/au):

     atom    1 type  1   force =     0.00000000    0.00000000    0.00000000

     Total force =     0.000000     Total SCF correction =     0.000535


     Computing stress (Cartesian axis) and pressure

          total   stress  (Ry/bohr**3)                   (kbar)     P=     -163.21
  -0.00066790   0.00010004   0.00001460          -98.25       14.72        2.15
   0.00010004  -0.00082624   0.00002144           14.72     -121.54        3.15
   0.00001460   0.00002144  -0.00183435            2.15        3.15     -269.84

     Energy error            =      1.6E-02 Ry
     Gradient error          =      0.0E+00 Ry/Bohr
     Cell gradient error     =      2.7E+02 kbar

     number of scf cycles    =   2
     number of bfgs steps    =   1

     enthalpy           old  =    -339.5100705398 Ry
     enthalpy           new  =    -339.5256606534 Ry

     CASE: enthalpy          _new < enthalpy          _old

     new trust radius        =       0.1408422548 bohr
     new conv_thr            =       0.0000000010 Ry

     new unit-cell volume =     94.52490 a.u.^3 (    14.00714 Ang^3 )
     density =      6.95807 g/cm^3

CELL_PARAMETERS (bohr)
   4.336610763   0.023026890   0.001409948
   0.312928007   4.445301592   0.004902532
   1.354794407  -0.047809294   4.905583051

ATOMIC_POSITIONS (crystal)
Ni            0.0000000000        0.0000000000        0.0000000000



     Writing config-only to output data dir ./out/pwscf.save/
     NEW-OLD atomic charge density approx. for the potential

     Check: negative core charge=   -0.000001
     extrapolated charge   15.45717, renormalised to   18.00000
     Generating pointlists ...
     new r_m :   0.3890 (alat units)  1.7889 (a.u.) for type    1

     total cpu time spent up to now is       61.3 secs

     Self-consistent Calculation

     iteration #  1     ecut=    60.00 Ry     beta= 0.70
     Davidson diagonalization with overlap
     ethr =  1.00E-06,  avg # of iterations = 10.2

     total cpu time spent up to now is       65.1 secs

     total energy              =    -328.67179215 Ry
     estimated scf accuracy    <      12.46525335 Ry

     total magnetization       =     0.00 Bohr mag/cell
     absolute magnetization    =     0.07 Bohr mag/cell

     iteration #  2     ecut=    60.00 Ry     beta= 0.70
     Davidson diagonalization with overlap
     ethr =  1.00E-02,  avg # of iterations =  4.6

     total cpu time spent up to now is       66.9 secs

     total energy              =    -339.07948619 Ry
     estimated scf accuracy    <      37.74587506 Ry

     total magnetization       =     0.06 Bohr mag/cell
     absolute magnetization    =     0.24 Bohr mag/cell

     iteration #  3     ecut=    60.00 Ry     beta= 0.70
     Davidson diagonalization with overlap
     ethr =  1.00E-02,  avg # of iterations =  3.6

     total cpu time spent up to now is       68.5 secs

     total energy              =    -340.80275067 Ry
     estimated scf accuracy    <       8.65504659 Ry

     total magnetization       =     0.25 Bohr mag/cell
     absolute magnetization    =     1.77 Bohr mag/cell

     iteration #  4     ecut=    60.00 Ry     beta= 0.70
     Davidson diagonalization with overlap
     ethr =  1.00E-02,  avg # of iterations =  1.9

     total cpu time spent up to now is       69.5 secs

     total energy              =    -339.00504579 Ry
     estimated scf accuracy    <      17.03695359 Ry

     total magnetization       =     0.29 Bohr mag/cell
     absolute magnetization    =     5.11 Bohr mag/cell

     iteration #  5     ecut=    60.00 Ry     beta= 0.70
     Davidson diagonalization with overlap
     ethr =  1.00E-02,  avg # of iterations =  2.0

     total cpu time spent up to now is       70.6 secs

     total energy              =    -339.62169750 Ry
     estimated scf accuracy    <       0.72426844 Ry

     total magnetization       =     0.39 Bohr mag/cell
     absolute magnetization    =     0.75 Bohr mag/cell

     iteration #  6     ecut=    60.00 Ry     beta= 0.70
     Davidson diagonalization with overlap
     ethr =  4.02E-03,  avg # of iterations =  1.0

     total cpu time spent up to now is       71.6 secs

     total energy              =    -339.64508452 Ry
     estimated scf accuracy    <       0.72545909 Ry

     total magnetization       =     0.46 Bohr mag/cell
     absolute magnetization    =     0.70 Bohr mag/cell

     iteration #  7     ecut=    60.00 Ry     beta= 0.70
     Davidson diagonalization with overlap
     ethr =  4.02E-03,  avg # of iterations =  1.0

     total cpu time spent up to now is       72.5 secs

     total energy              =    -339.64251545 Ry
     estimated scf accuracy    <       1.14270772 Ry

     total magnetization       =     0.54 Bohr mag/cell
     absolute magnetization    =     1.36 Bohr mag/cell

     iteration #  8     ecut=    60.00 Ry     beta= 0.70
     Davidson diagonalization with overlap
     ethr =  4.02E-03,  avg # of iterations =  1.0

     total cpu time spent up to now is       73.4 secs

     total energy              =    -339.63322221 Ry
     estimated scf accuracy    <       0.58685328 Ry

     total magnetization       =     0.55 Bohr mag/cell
     absolute magnetization    =     0.58 Bohr mag/cell

     iteration #  9     ecut=    60.00 Ry     beta= 0.70
     Davidson diagonalization with overlap
     ethr =  3.26E-03,  avg # of iterations =  1.0

     total cpu time spent up to now is       74.3 secs

     total energy              =    -339.62413729 Ry
     estimated scf accuracy    <       0.52466021 Ry

     total magnetization       =     0.66 Bohr mag/cell
     absolute magnetization    =     0.68 Bohr mag/cell

     iteration # 10     ecut=    60.00 Ry     beta= 0.70
     Davidson diagonalization with overlap
     ethr =  2.91E-03,  avg # of iterations =  1.0

     total cpu time spent up to now is       75.2 secs

     total energy              =    -339.52044769 Ry
     estimated scf accuracy    <       0.45461996 Ry

     total magnetization       =     0.69 Bohr mag/cell
     absolute magnetization    =     0.73 Bohr mag/cell

     iteration # 11     ecut=    60.00 Ry     beta= 0.70
     Davidson diagonalization with overlap
     ethr =  2.53E-03,  avg # of iterations =  1.1

     total cpu time spent up to now is       76.1 secs

     total energy              =    -339.53737312 Ry
     estimated scf accuracy    <       0.51158644 Ry

     total magnetization       =     0.81 Bohr mag/cell
     absolute magnetization    =     1.44 Bohr mag/cell

     iteration # 12     ecut=    60.00 Ry     beta= 0.70
     Davidson diagonalization with overlap
     ethr =  2.53E-03,  avg # of iterations =  1.0

     total cpu time spent up to now is       77.1 secs

     total energy              =    -339.53873131 Ry
     estimated scf accuracy    <       0.43085646 Ry

     total magnetization       =     0.79 Bohr mag/cell
     absolute magnetization    =     1.41 Bohr mag/cell

     iteration # 13     ecut=    60.00 Ry     beta= 0.70
     Davidson diagonalization with overlap
     ethr =  2.39E-03,  avg # of iterations =  1.0

     total cpu time spent up to now is       78.0 secs

     total energy              =    -339.52934163 Ry
     estimated scf accuracy    <       0.75568457 Ry

     total magnetization       =     0.91 Bohr mag/cell
     absolute magnetization    =     1.48 Bohr mag/cell

     iteration # 14     ecut=    60.00 Ry     beta= 0.70
     Davidson diagonalization with overlap
     ethr =  2.39E-03,  avg # of iterations =  1.3

     total cpu time spent up to now is       79.0 secs

     total energy              =    -339.53679207 Ry
     estimated scf accuracy    <       0.08471869 Ry

     total magnetization       =     0.92 Bohr mag/cell
     absolute magnetization    =     1.15 Bohr mag/cell

     iteration # 15     ecut=    60.00 Ry     beta= 0.70
     Davidson diagonalization with overlap
     ethr =  4.71E-04,  avg # of iterations =  1.1

     total cpu time spent up to now is       79.9 secs

     total energy              =    -339.53929409 Ry
     estimated scf accuracy    <       0.03636921 Ry

     total magnetization       =     0.95 Bohr mag/cell
     absolute magnetization    =     1.11 Bohr mag/cell

     iteration # 16     ecut=    60.00 Ry     beta= 0.70
     Davidson diagonalization with overlap
     ethr =  2.02E-04,  avg # of iterations =  2.1

     total cpu time spent up to now is       81.0 secs

     total energy              =    -339.53606852 Ry
     estimated scf accuracy    <       0.18459437 Ry

     total magnetization       =     0.90 Bohr mag/cell
     absolute magnetization    =     1.09 Bohr mag/cell

     iteration # 17     ecut=    60.00 Ry     beta= 0.70
     Davidson diagonalization with overlap
     ethr =  2.02E-04,  avg # of iterations =  2.0

     total cpu time spent up to now is       82.1 secs

     total energy              =    -339.52509345 Ry
     estimated scf accuracy    <       1.18198344 Ry

     total magnetization       =     0.85 Bohr mag/cell
     absolute magnetization    =     2.01 Bohr mag/cell

     iteration # 18     ecut=    60.00 Ry     beta= 0.70
     Davidson diagonalization with overlap
     ethr =  2.02E-04,  avg # of iterations =  2.0

     total cpu time spent up to now is       83.3 secs

     total energy              =    -339.54384529 Ry
     estimated scf accuracy    <       0.29085542 Ry

     total magnetization       =     0.84 Bohr mag/cell
     absolute magnetization    =     1.33 Bohr mag/cell

     iteration # 19     ecut=    60.00 Ry     beta= 0.70
     Davidson diagonalization with overlap
     ethr =  2.02E-04,  avg # of iterations =  1.0

     total cpu time spent up to now is       84.2 secs

     total energy              =    -339.54121912 Ry
     estimated scf accuracy    <       0.28628017 Ry

     total magnetization       =     0.84 Bohr mag/cell
     absolute magnetization    =     1.32 Bohr mag/cell

     iteration # 20     ecut=    60.00 Ry     beta= 0.70
     Davidson diagonalization with overlap
     ethr =  2.02E-04,  avg # of iterations =  1.5

     total cpu time spent up to now is       85.3 secs

     total energy              =    -339.54285313 Ry
     estimated scf accuracy    <       0.36250789 Ry

     total magnetization       =     0.85 Bohr mag/cell
     absolute magnetization    =     1.41 Bohr mag/cell

     iteration # 21     ecut=    60.00 Ry     beta= 0.70
     Davidson diagonalization with overlap
     ethr =  2.02E-04,  avg # of iterations =  1.5

     total cpu time spent up to now is       86.3 secs

     total energy              =    -339.53919433 Ry
     estimated scf accuracy    <       0.34358088 Ry

     total magnetization       =     0.84 Bohr mag/cell
     absolute magnetization    =     1.39 Bohr mag/cell

     iteration # 22     ecut=    60.00 Ry     beta= 0.70
     Davidson diagonalization with overlap
     ethr =  2.02E-04,  avg # of iterations =  1.5

     total cpu time spent up to now is       87.4 secs

     total energy              =    -339.54089481 Ry
     estimated scf accuracy    <       0.06569768 Ry

     total magnetization       =     0.84 Bohr mag/cell
     absolute magnetization    =     1.06 Bohr mag/cell

     iteration # 23     ecut=    60.00 Ry     beta= 0.70
     Davidson diagonalization with overlap
     ethr =  2.02E-04,  avg # of iterations =  1.0

     total cpu time spent up to now is       88.4 secs

     total energy              =    -339.54251104 Ry
     estimated scf accuracy    <       0.00487794 Ry

     total magnetization       =     0.81 Bohr mag/cell
     absolute magnetization    =     0.91 Bohr mag/cell

     iteration # 24     ecut=    60.00 Ry     beta= 0.70
     Davidson diagonalization with overlap
     ethr =  2.71E-05,  avg # of iterations =  1.5

     total cpu time spent up to now is       89.5 secs

     total energy              =    -339.54267052 Ry
     estimated scf accuracy    <       0.03376801 Ry

     total magnetization       =     0.81 Bohr mag/cell
     absolute magnetization    =     0.95 Bohr mag/cell

     iteration # 25     ecut=    60.00 Ry     beta= 0.70
     Davidson diagonalization with overlap
     ethr =  2.71E-05,  avg # of iterations =  1.5

     total cpu time spent up to now is       90.6 secs

     total energy              =    -339.54313280 Ry
     estimated scf accuracy    <       0.00163276 Ry

     total magnetization       =     0.80 Bohr mag/cell
     absolute magnetization    =     0.89 Bohr mag/cell

     iteration # 26     ecut=    60.00 Ry     beta= 0.70
     Davidson diagonalization with overlap
     ethr =  9.07E-06,  avg # of iterations =  1.1

     total cpu time spent up to now is       91.5 secs

     total energy              =    -339.54302358 Ry
     estimated scf accuracy    <       0.00293065 Ry

     total magnetization       =     0.79 Bohr mag/cell
     absolute magnetization    =     0.87 Bohr mag/cell

     iteration # 27     ecut=    60.00 Ry     beta= 0.70
     Davidson diagonalization with overlap
     ethr =  9.07E-06,  avg # of iterations =  2.0

     total cpu time spent up to now is       92.6 secs

     total energy              =    -339.54312180 Ry
     estimated scf accuracy    <       0.00864576 Ry

     total magnetization       =     0.78 Bohr mag/cell
     absolute magnetization    =     0.87 Bohr mag/cell

     iteration # 28     ecut=    60.00 Ry     beta= 0.70
     Davidson diagonalization with overlap
     ethr =  9.07E-06,  avg # of iterations =  1.0

     total cpu time spent up to now is       93.5 secs

     total energy              =    -339.54327661 Ry
     estimated scf accuracy    <       0.00230843 Ry

     total magnetization       =     0.77 Bohr mag/cell
     absolute magnetization    =     0.86 Bohr mag/cell

     iteration # 29     ecut=    60.00 Ry     beta= 0.70
     Davidson diagonalization with overlap
     ethr =  9.07E-06,  avg # of iterations =  1.5

     total cpu time spent up to now is       94.6 secs

     total energy              =    -339.54303315 Ry
     estimated scf accuracy    <       0.01701299 Ry

     total magnetization       =     0.77 Bohr mag/cell
     absolute magnetization    =     0.88 Bohr mag/cell

     iteration # 30     ecut=    60.00 Ry     beta= 0.70
     Davidson diagonalization with overlap
     ethr =  9.07E-06,  avg # of iterations =  1.5

     total cpu time spent up to now is       95.7 secs

     total energy              =    -339.54322274 Ry
     estimated scf accuracy    <       0.00321954 Ry

     total magnetization       =     0.77 Bohr mag/cell
     absolute magnetization    =     0.85 Bohr mag/cell

     iteration # 31     ecut=    60.00 Ry     beta= 0.70
     Davidson diagonalization with overlap
     ethr =  9.07E-06,  avg # of iterations =  1.0

     total cpu time spent up to now is       96.6 secs

     total energy              =    -339.54298569 Ry
     estimated scf accuracy    <       0.00771890 Ry

     total magnetization       =     0.77 Bohr mag/cell
     absolute magnetization    =     0.86 Bohr mag/cell

     iteration # 32     ecut=    60.00 Ry     beta= 0.70
     Davidson diagonalization with overlap
     ethr =  9.07E-06,  avg # of iterations =  2.0

     total cpu time spent up to now is       97.7 secs

     total energy              =    -339.54315555 Ry
     estimated scf accuracy    <       0.00001694 Ry

     total magnetization       =     0.77 Bohr mag/cell
     absolute magnetization    =     0.86 Bohr mag/cell

     iteration # 33     ecut=    60.00 Ry     beta= 0.70
     Davidson diagonalization with overlap
     ethr =  9.41E-08,  avg # of iterations =  1.1

     total cpu time spent up to now is       98.6 secs

     total energy              =    -339.54315938 Ry
     estimated scf accuracy    <       0.00001269 Ry

     total magnetization       =     0.77 Bohr mag/cell
     absolute magnetization    =     0.85 Bohr mag/cell

     iteration # 34     ecut=    60.00 Ry     beta= 0.70
     Davidson diagonalization with overlap
     ethr =  7.05E-08,  avg # of iterations =  1.0

     total cpu time spent up to now is       99.5 secs

     total energy              =    -339.54315975 Ry
     estimated scf accuracy    <       0.00001182 Ry

     total magnetization       =     0.77 Bohr mag/cell
     absolute magnetization    =     0.85 Bohr mag/cell

     iteration # 35     ecut=    60.00 Ry     beta= 0.70
     Davidson diagonalization with overlap
     ethr =  6.57E-08,  avg # of iterations =  1.0

     total cpu time spent up to now is      100.4 secs

     total energy              =    -339.54315999 Ry
     estimated scf accuracy    <       0.00001148 Ry

     total magnetization       =     0.77 Bohr mag/cell
     absolute magnetization    =     0.85 Bohr mag/cell

     iteration # 36     ecut=    60.00 Ry     beta= 0.70
     Davidson diagonalization with overlap
     ethr =  6.38E-08,  avg # of iterations =  2.0

     total cpu time spent up to now is      101.6 secs

     total energy              =    -339.54315972 Ry
     estimated scf accuracy    <       0.00011286 Ry

     total magnetization       =     0.77 Bohr mag/cell
     absolute magnetization    =     0.85 Bohr mag/cell

     iteration # 37     ecut=    60.00 Ry     beta= 0.70
     Davidson diagonalization with overlap
     ethr =  6.38E-08,  avg # of iterations =  1.0

     total cpu time spent up to now is      102.5 secs

     total energy              =    -339.54315972 Ry
     estimated scf accuracy    <       0.00004056 Ry

     total magnetization       =     0.77 Bohr mag/cell
     absolute magnetization    =     0.85 Bohr mag/cell

     iteration # 38     ecut=    60.00 Ry     beta= 0.70
     Davidson diagonalization with overlap
     ethr =  6.38E-08,  avg # of iterations =  1.5

     total cpu time spent up to now is      103.6 secs

     total energy              =    -339.54315964 Ry
     estimated scf accuracy    <       0.00004840 Ry

     total magnetization       =     0.77 Bohr mag/cell
     absolute magnetization    =     0.85 Bohr mag/cell

     iteration # 39     ecut=    60.00 Ry     beta= 0.70
     Davidson diagonalization with overlap
     ethr =  6.38E-08,  avg # of iterations =  1.0

     total cpu time spent up to now is      104.6 secs

     total energy              =    -339.54316030 Ry
     estimated scf accuracy    <       0.00001887 Ry

     total magnetization       =     0.77 Bohr mag/cell
     absolute magnetization    =     0.85 Bohr mag/cell

     iteration # 40     ecut=    60.00 Ry     beta= 0.70
     Davidson diagonalization with overlap
     ethr =  6.38E-08,  avg # of iterations =  1.5

     total cpu time spent up to now is      105.7 secs

     total energy              =    -339.54316082 Ry
     estimated scf accuracy    <       0.00007162 Ry

     total magnetization       =     0.77 Bohr mag/cell
     absolute magnetization    =     0.85 Bohr mag/cell

     iteration # 41     ecut=    60.00 Ry     beta= 0.70
     Davidson diagonalization with overlap
     ethr =  6.38E-08,  avg # of iterations =  1.9

     total cpu time spent up to now is      106.8 secs

     total energy              =    -339.54315959 Ry
     estimated scf accuracy    <       0.00013522 Ry

     total magnetization       =     0.77 Bohr mag/cell
     absolute magnetization    =     0.85 Bohr mag/cell

     iteration # 42     ecut=    60.00 Ry     beta= 0.70
     Davidson diagonalization with overlap
     ethr =  6.38E-08,  avg # of iterations =  1.0

     total cpu time spent up to now is      107.7 secs

     total energy              =    -339.54315947 Ry
     estimated scf accuracy    <       0.00005409 Ry

     total magnetization       =     0.77 Bohr mag/cell
     absolute magnetization    =     0.85 Bohr mag/cell

     iteration # 43     ecut=    60.00 Ry     beta= 0.70
     Davidson diagonalization with overlap
     ethr =  6.38E-08,  avg # of iterations =  1.1

     total cpu time spent up to now is      108.6 secs

     total energy              =    -339.54315916 Ry
     estimated scf accuracy    <       0.00003219 Ry

     total magnetization       =     0.77 Bohr mag/cell
     absolute magnetization    =     0.85 Bohr mag/cell

     iteration # 44     ecut=    60.00 Ry     beta= 0.70
     Davidson diagonalization with overlap
     ethr =  6.38E-08,  avg # of iterations =  1.5

     total cpu time spent up to now is      109.7 secs

     total energy              =    -339.54315979 Ry
     estimated scf accuracy    <       0.00000096 Ry

     total magnetization       =     0.77 Bohr mag/cell
     absolute magnetization    =     0.85 Bohr mag/cell

     iteration # 45     ecut=    60.00 Ry     beta= 0.70
     Davidson diagonalization with overlap
     ethr =  5.35E-09,  avg # of iterations =  1.0

     total cpu time spent up to now is      110.6 secs

     total energy              =    -339.54315984 Ry
     estimated scf accuracy    <       0.00000018 Ry

     total magnetization       =     0.77 Bohr mag/cell
     absolute magnetization    =     0.85 Bohr mag/cell

     iteration # 46     ecut=    60.00 Ry     beta= 0.70
     Davidson diagonalization with overlap
     ethr =  1.01E-09,  avg # of iterations =  1.0

     total cpu time spent up to now is      111.5 secs

     total energy              =    -339.54315984 Ry
     estimated scf accuracy    <          5.7E-09 Ry

     total magnetization       =     0.77 Bohr mag/cell
     absolute magnetization    =     0.85 Bohr mag/cell

     iteration # 47     ecut=    60.00 Ry     beta= 0.70
     Davidson diagonalization with overlap
     ethr =  3.18E-11,  avg # of iterations =  1.8

     total cpu time spent up to now is      112.5 secs

     total energy              =    -339.54315985 Ry
     estimated scf accuracy    <          4.6E-09 Ry

     total magnetization       =     0.77 Bohr mag/cell
     absolute magnetization    =     0.85 Bohr mag/cell

     iteration # 48     ecut=    60.00 Ry     beta= 0.70
     Davidson diagonalization with overlap
     ethr =  2.54E-11,  avg # of iterations =  1.5

     total cpu time spent up to now is      113.6 secs

     total energy              =    -339.54315985 Ry
     estimated scf accuracy    <       0.00000001 Ry

     total magnetization       =     0.77 Bohr mag/cell
     absolute magnetization    =     0.85 Bohr mag/cell

     iteration # 49     ecut=    60.00 Ry     beta= 0.70
     Davidson diagonalization with overlap
     ethr =  2.54E-11,  avg # of iterations =  1.9

     total cpu time spent up to now is      114.7 secs

     total energy              =    -339.54315985 Ry
     estimated scf accuracy    <          3.6E-09 Ry

     total magnetization       =     0.77 Bohr mag/cell
     absolute magnetization    =     0.85 Bohr mag/cell

     iteration # 50     ecut=    60.00 Ry     beta= 0.70
     Davidson diagonalization with overlap
     ethr =  2.01E-11,  avg # of iterations =  1.0

     total cpu time spent up to now is      115.6 secs

     total energy              =    -339.54315985 Ry
     estimated scf accuracy    <          2.4E-09 Ry

     total magnetization       =     0.77 Bohr mag/cell
     absolute magnetization    =     0.85 Bohr mag/cell

     iteration # 51     ecut=    60.00 Ry     beta= 0.70
     Davidson diagonalization with overlap
     ethr =  1.34E-11,  avg # of iterations =  1.2

     total cpu time spent up to now is      116.5 secs

     total energy              =    -339.54315985 Ry
     estimated scf accuracy    <          3.6E-09 Ry

     total magnetization       =     0.77 Bohr mag/cell
     absolute magnetization    =     0.85 Bohr mag/cell

     iteration # 52     ecut=    60.00 Ry     beta= 0.70
     Davidson diagonalization with overlap
     ethr =  1.34E-11,  avg # of iterations =  1.0

     total cpu time spent up to now is      117.4 secs

     total energy              =    -339.54315985 Ry
     estimated scf accuracy    <          1.3E-09 Ry

     total magnetization       =     0.77 Bohr mag/cell
     absolute magnetization    =     0.85 Bohr mag/cell

     iteration # 53     ecut=    60.00 Ry     beta= 0.70
     Davidson diagonalization with overlap
     ethr =  7.29E-12,  avg # of iterations =  1.0

     Magnetic moment per site  (integrated on atomic sphere of radius R)
     atom   1 (R=0.389)  charge= 16.2009  magn=  0.8092

     total cpu time spent up to now is      118.3 secs

     End of self-consistent calculation

     Number of k-points >= 100: set verbosity='high' to print the bands.

     the Fermi energy is    13.0077 ev

!    total energy              =    -339.54315985 Ry
     estimated scf accuracy    <          4.0E-10 Ry
     smearing contrib. (-TS)   =      -0.00001721 Ry
     internal energy E=F+TS    =    -339.54314264 Ry

     The total energy is F=E-TS. E is the sum of the following terms:
     one-electron contribution =    -224.52425561 Ry
     hartree contribution      =     120.58323824 Ry
     xc contribution           =     -34.26356794 Ry
     ewald contribution        =    -201.33855733 Ry

     total magnetization       =     0.77 Bohr mag/cell
     absolute magnetization    =     0.85 Bohr mag/cell

     convergence has been achieved in  53 iterations

     Forces acting on atoms (cartesian axes, Ry/au):

     atom    1 type  1   force =     0.00000000    0.00000000    0.00000000

     Total force =     0.000000     Total SCF correction =     0.000009


     Computing stress (Cartesian axis) and pressure

          total   stress  (Ry/bohr**3)                   (kbar)     P=     -125.36
  -0.00011346   0.00015901   0.00010282          -16.69       23.39       15.13
   0.00015901  -0.00041557   0.00001986           23.39      -61.13        2.92
   0.00010282   0.00001986  -0.00202744           15.13        2.92     -298.25

     Energy error            =      1.7E-02 Ry
     Gradient error          =      0.0E+00 Ry/Bohr
     Cell gradient error     =      3.0E+02 kbar

     number of scf cycles    =   3
     number of bfgs steps    =   2

     enthalpy           old  =    -339.5256606534 Ry
     enthalpy           new  =    -339.5431598465 Ry

     CASE: enthalpy          _new < enthalpy          _old

     new trust radius        =       0.2121417186 bohr
     new conv_thr            =       0.0000000010 Ry

     new unit-cell volume =     78.47948 a.u.^3 (    11.62946 Ang^3 )
     density =      8.38067 g/cm^3

CELL_PARAMETERS (bohr)
   4.208972305   0.050395889   0.013403203
   0.332529419   4.270559310   0.010132146
   1.329628187  -0.031764909   4.374323345

ATOMIC_POSITIONS (crystal)
Ni            0.0000000000        0.0000000000        0.0000000000



     Writing config-only to output data dir ./out/pwscf.save/
     NEW-OLD atomic charge density approx. for the potential
     extrapolated charge   14.31989, renormalised to   18.00000
     Generating pointlists ...
     new r_m :   0.3776 (alat units)  1.7363 (a.u.) for type    1

     total cpu time spent up to now is      118.9 secs

     Self-consistent Calculation

     iteration #  1     ecut=    60.00 Ry     beta= 0.70
     Davidson diagonalization with overlap
     ethr =  1.00E-06,  avg # of iterations = 10.6

     total cpu time spent up to now is      122.7 secs

     total energy              =    -323.21820550 Ry
     estimated scf accuracy    <      18.84779903 Ry

     total magnetization       =     0.00 Bohr mag/cell
     absolute magnetization    =     0.04 Bohr mag/cell

     iteration #  2     ecut=    60.00 Ry     beta= 0.70
     Davidson diagonalization with overlap
     ethr =  1.00E-02,  avg # of iterations =  4.2

     total cpu time spent up to now is      124.5 secs

     total energy              =    -339.22900887 Ry
     estimated scf accuracy    <      40.99605245 Ry

     total magnetization       =     0.04 Bohr mag/cell
     absolute magnetization    =     0.05 Bohr mag/cell

     iteration #  3     ecut=    60.00 Ry     beta= 0.70
     Davidson diagonalization with overlap
     ethr =  1.00E-02,  avg # of iterations =  3.6

     total cpu time spent up to now is      126.1 secs

     total energy              =    -338.96142342 Ry
     estimated scf accuracy    <       8.30134075 Ry

     total magnetization       =     0.18 Bohr mag/cell
     absolute magnetization    =     0.20 Bohr mag/cell

     iteration #  4     ecut=    60.00 Ry     beta= 0.70
     Davidson diagonalization with overlap
     ethr =  1.00E-02,  avg # of iterations =  2.1

     total cpu time spent up to now is      127.3 secs

     total energy              =    -339.68399439 Ry
     estimated scf accuracy    <       1.15680283 Ry

     total magnetization       =     0.23 Bohr mag/cell
     absolute magnetization    =     1.07 Bohr mag/cell

     iteration #  5     ecut=    60.00 Ry     beta= 0.70
     Davidson diagonalization with overlap
     ethr =  6.43E-03,  avg # of iterations =  1.0

     total cpu time spent up to now is      128.2 secs

     total energy              =    -339.75737678 Ry
     estimated scf accuracy    <       0.85661285 Ry

     total magnetization       =     0.25 Bohr mag/cell
     absolute magnetization    =     0.88 Bohr mag/cell

     iteration #  6     ecut=    60.00 Ry     beta= 0.70
     Davidson diagonalization with overlap
     ethr =  4.76E-03,  avg # of iterations =  1.0

     total cpu time spent up to now is      129.1 secs

     total energy              =    -339.76858390 Ry
     estimated scf accuracy    <       1.02367699 Ry

     total magnetization       =     0.36 Bohr mag/cell
     absolute magnetization    =     0.44 Bohr mag/cell

     iteration #  7     ecut=    60.00 Ry     beta= 0.70
     Davidson diagonalization with overlap
     ethr =  4.76E-03,  avg # of iterations =  1.0

     total cpu time spent up to now is      130.0 secs

     total energy              =    -339.75985178 Ry
     estimated scf accuracy    <       1.07101837 Ry

     total magnetization       =     0.37 Bohr mag/cell
     absolute magnetization    =     0.69 Bohr mag/cell

     iteration #  8     ecut=    60.00 Ry     beta= 0.70
     Davidson diagonalization with overlap
     ethr =  4.76E-03,  avg # of iterations =  1.0

     total cpu time spent up to now is      130.9 secs

     total energy              =    -339.64424324 Ry
     estimated scf accuracy    <       0.95790603 Ry

     total magnetization       =     0.38 Bohr mag/cell
     absolute magnetization    =     0.44 Bohr mag/cell

     iteration #  9     ecut=    60.00 Ry     beta= 0.70
     Davidson diagonalization with overlap
     ethr =  4.76E-03,  avg # of iterations =  1.0

     total cpu time spent up to now is      131.8 secs

     total energy              =    -339.60926504 Ry
     estimated scf accuracy    <       0.49126188 Ry

     total magnetization       =     0.48 Bohr mag/cell
     absolute magnetization    =     0.50 Bohr mag/cell

     iteration # 10     ecut=    60.00 Ry     beta= 0.70
     Davidson diagonalization with overlap
     ethr =  2.73E-03,  avg # of iterations =  1.0

     total cpu time spent up to now is      132.8 secs

     total energy              =    -339.54109450 Ry
     estimated scf accuracy    <       0.28268930 Ry

     total magnetization       =     0.52 Bohr mag/cell
     absolute magnetization    =     0.55 Bohr mag/cell

     iteration # 11     ecut=    60.00 Ry     beta= 0.70
     Davidson diagonalization with overlap
     ethr =  1.57E-03,  avg # of iterations =  1.0

     total cpu time spent up to now is      133.7 secs

     total energy              =    -339.55547590 Ry
     estimated scf accuracy    <       0.16055988 Ry

     total magnetization       =     0.54 Bohr mag/cell
     absolute magnetization    =     0.86 Bohr mag/cell

     iteration # 12     ecut=    60.00 Ry     beta= 0.70
     Davidson diagonalization with overlap
     ethr =  8.92E-04,  avg # of iterations =  1.0

     total cpu time spent up to now is      134.6 secs

     total energy              =    -339.55769797 Ry
     estimated scf accuracy    <       0.01923193 Ry

     total magnetization       =     0.53 Bohr mag/cell
     absolute magnetization    =     0.62 Bohr mag/cell

     iteration # 13     ecut=    60.00 Ry     beta= 0.70
     Davidson diagonalization with overlap
     ethr =  1.07E-04,  avg # of iterations =  1.6

     total cpu time spent up to now is      135.6 secs

     total energy              =    -339.55823152 Ry
     estimated scf accuracy    <       0.00321650 Ry

     total magnetization       =     0.56 Bohr mag/cell
     absolute magnetization    =     0.62 Bohr mag/cell

     iteration # 14     ecut=    60.00 Ry     beta= 0.70
     Davidson diagonalization with overlap
     ethr =  1.79E-05,  avg # of iterations =  2.4

     total cpu time spent up to now is      136.8 secs

     total energy              =    -339.55836591 Ry
     estimated scf accuracy    <       0.00631202 Ry

     total magnetization       =     0.57 Bohr mag/cell
     absolute magnetization    =     0.62 Bohr mag/cell

     iteration # 15     ecut=    60.00 Ry     beta= 0.70
     Davidson diagonalization with overlap
     ethr =  1.79E-05,  avg # of iterations =  2.0

     total cpu time spent up to now is      137.9 secs

     total energy              =    -339.55842630 Ry
     estimated scf accuracy    <       0.01669394 Ry

     total magnetization       =     0.57 Bohr mag/cell
     absolute magnetization    =     0.67 Bohr mag/cell

     iteration # 16     ecut=    60.00 Ry     beta= 0.70
     Davidson diagonalization with overlap
     ethr =  1.79E-05,  avg # of iterations =  2.0

     total cpu time spent up to now is      138.9 secs

     total energy              =    -339.55858859 Ry
     estimated scf accuracy    <       0.00105900 Ry

     total magnetization       =     0.57 Bohr mag/cell
     absolute magnetization    =     0.63 Bohr mag/cell

     iteration # 17     ecut=    60.00 Ry     beta= 0.70
     Davidson diagonalization with overlap
     ethr =  5.88E-06,  avg # of iterations =  2.0

     total cpu time spent up to now is      140.0 secs

     total energy              =    -339.55858940 Ry
     estimated scf accuracy    <       0.00824612 Ry

     total magnetization       =     0.57 Bohr mag/cell
     absolute magnetization    =     0.65 Bohr mag/cell

     iteration # 18     ecut=    60.00 Ry     beta= 0.70
     Davidson diagonalization with overlap
     ethr =  5.88E-06,  avg # of iterations =  1.6

     total cpu time spent up to now is      141.1 secs

     total energy              =    -339.55856586 Ry
     estimated scf accuracy    <       0.00215620 Ry

     total magnetization       =     0.57 Bohr mag/cell
     absolute magnetization    =     0.63 Bohr mag/cell

     iteration # 19     ecut=    60.00 Ry     beta= 0.70
     Davidson diagonalization with overlap
     ethr =  5.88E-06,  avg # of iterations =  1.5

     total cpu time spent up to now is      142.1 secs

     total energy              =    -339.55861188 Ry
     estimated scf accuracy    <       0.00014117 Ry

     total magnetization       =     0.57 Bohr mag/cell
     absolute magnetization    =     0.63 Bohr mag/cell

     iteration # 20     ecut=    60.00 Ry     beta= 0.70
     Davidson diagonalization with overlap
     ethr =  7.84E-07,  avg # of iterations =  1.5

     total cpu time spent up to now is      143.2 secs

     total energy              =    -339.55864068 Ry
     estimated scf accuracy    <       0.00165879 Ry

     total magnetization       =     0.57 Bohr mag/cell
     absolute magnetization    =     0.63 Bohr mag/cell

     iteration # 21     ecut=    60.00 Ry     beta= 0.70
     Davidson diagonalization with overlap
     ethr =  7.84E-07,  avg # of iterations =  1.0

     total cpu time spent up to now is      144.1 secs

     total energy              =    -339.55858634 Ry
     estimated scf accuracy    <       0.00185579 Ry

     total magnetization       =     0.57 Bohr mag/cell
     absolute magnetization    =     0.63 Bohr mag/cell

     iteration # 22     ecut=    60.00 Ry     beta= 0.70
     Davidson diagonalization with overlap
     ethr =  7.84E-07,  avg # of iterations =  1.5

     total cpu time spent up to now is      145.2 secs

     total energy              =    -339.55861004 Ry
     estimated scf accuracy    <       0.00005230 Ry

     total magnetization       =     0.57 Bohr mag/cell
     absolute magnetization    =     0.63 Bohr mag/cell

     iteration # 23     ecut=    60.00 Ry     beta= 0.70
     Davidson diagonalization with overlap
     ethr =  2.91E-07,  avg # of iterations =  1.0

     total cpu time spent up to now is      146.2 secs

     total energy              =    -339.55861277 Ry
     estimated scf accuracy    <       0.00000421 Ry

     total magnetization       =     0.58 Bohr mag/cell
     absolute magnetization    =     0.64 Bohr mag/cell

     iteration # 24     ecut=    60.00 Ry     beta= 0.70
     Davidson diagonalization with overlap
     ethr =  2.34E-08,  avg # of iterations =  1.5

     total cpu time spent up to now is      147.3 secs

     total energy              =    -339.55861345 Ry
     estimated scf accuracy    <       0.00001022 Ry

     total magnetization       =     0.58 Bohr mag/cell
     absolute magnetization    =     0.64 Bohr mag/cell

     iteration # 25     ecut=    60.00 Ry     beta= 0.70
     Davidson diagonalization with overlap
     ethr =  2.34E-08,  avg # of iterations =  1.5

     total cpu time spent up to now is      148.4 secs

     total energy              =    -339.55861370 Ry
     estimated scf accuracy    <       0.00000184 Ry

     total magnetization       =     0.58 Bohr mag/cell
     absolute magnetization    =     0.64 Bohr mag/cell

     iteration # 26     ecut=    60.00 Ry     beta= 0.70
     Davidson diagonalization with overlap
     ethr =  1.02E-08,  avg # of iterations =  2.0

     total cpu time spent up to now is      149.5 secs

     total energy              =    -339.55861464 Ry
     estimated scf accuracy    <       0.00001437 Ry

     total magnetization       =     0.58 Bohr mag/cell
     absolute magnetization    =     0.65 Bohr mag/cell

     iteration # 27     ecut=    60.00 Ry     beta= 0.70
     Davidson diagonalization with overlap
     ethr =  1.02E-08,  avg # of iterations =  1.0

     total cpu time spent up to now is      150.4 secs

     total energy              =    -339.55861467 Ry
     estimated scf accuracy    <       0.00000899 Ry

     total magnetization       =     0.58 Bohr mag/cell
     absolute magnetization    =     0.65 Bohr mag/cell

     iteration # 28     ecut=    60.00 Ry     beta= 0.70
     Davidson diagonalization with overlap
     ethr =  1.02E-08,  avg # of iterations =  2.0

     total cpu time spent up to now is      151.5 secs

     total energy              =    -339.55861407 Ry
     estimated scf accuracy    <       0.00003807 Ry

     total magnetization       =     0.58 Bohr mag/cell
     absolute magnetization    =     0.65 Bohr mag/cell

     iteration # 29     ecut=    60.00 Ry     beta= 0.70
     Davidson diagonalization with overlap
     ethr =  1.02E-08,  avg # of iterations =  2.0

     total cpu time spent up to now is      152.6 secs

     total energy              =    -339.55861410 Ry
     estimated scf accuracy    <       0.00000641 Ry

     total magnetization       =     0.58 Bohr mag/cell
     absolute magnetization    =     0.65 Bohr mag/cell

     iteration # 30     ecut=    60.00 Ry     beta= 0.70
     Davidson diagonalization with overlap
     ethr =  1.02E-08,  avg # of iterations =  2.0

     total cpu time spent up to now is      153.7 secs

     total energy              =    -339.55861488 Ry
     estimated scf accuracy    <       0.00000031 Ry

     total magnetization       =     0.59 Bohr mag/cell
     absolute magnetization    =     0.65 Bohr mag/cell

     iteration # 31     ecut=    60.00 Ry     beta= 0.70
     Davidson diagonalization with overlap
     ethr =  1.72E-09,  avg # of iterations =  1.0

     total cpu time spent up to now is      154.7 secs

     total energy              =    -339.55861488 Ry
     estimated scf accuracy    <       0.00000012 Ry

     total magnetization       =     0.59 Bohr mag/cell
     absolute magnetization    =     0.65 Bohr mag/cell

     iteration # 32     ecut=    60.00 Ry     beta= 0.70
     Davidson diagonalization with overlap
     ethr =  6.91E-10,  avg # of iterations =  1.4

     total cpu time spent up to now is      155.7 secs

     total energy              =    -339.55861489 Ry
     estimated scf accuracy    <       0.00000015 Ry

     total magnetization       =     0.59 Bohr mag/cell
     absolute magnetization    =     0.65 Bohr mag/cell

     iteration # 33     ecut=    60.00 Ry     beta= 0.70
     Davidson diagonalization with overlap
     ethr =  6.91E-10,  avg # of iterations =  1.0

     total cpu time spent up to now is      156.6 secs

     total energy              =    -339.55861489 Ry
     estimated scf accuracy    <       0.00000008 Ry

     total magnetization       =     0.59 Bohr mag/cell
     absolute magnetization    =     0.65 Bohr mag/cell

     iteration # 34     ecut=    60.00 Ry     beta= 0.70
     Davidson diagonalization with overlap
     ethr =  4.19E-10,  avg # of iterations =  1.0

     total cpu time spent up to now is      157.5 secs

     total energy              =    -339.55861489 Ry
     estimated scf accuracy    <       0.00000003 Ry

     total magnetization       =     0.59 Bohr mag/cell
     absolute magnetization    =     0.65 Bohr mag/cell

     iteration # 35     ecut=    60.00 Ry     beta= 0.70
     Davidson diagonalization with overlap
     ethr =  1.71E-10,  avg # of iterations =  1.5

     total cpu time spent up to now is      158.5 secs

     total energy              =    -339.55861489 Ry
     estimated scf accuracy    <          8.2E-09 Ry

     total magnetization       =     0.59 Bohr mag/cell
     absolute magnetization    =     0.65 Bohr mag/cell

     iteration # 36     ecut=    60.00 Ry     beta= 0.70
     Davidson diagonalization with overlap
     ethr =  4.54E-11,  avg # of iterations =  1.0

     total cpu time spent up to now is      159.4 secs

     total energy              =    -339.55861489 Ry
     estimated scf accuracy    <          2.2E-09 Ry

     total magnetization       =     0.59 Bohr mag/cell
     absolute magnetization    =     0.65 Bohr mag/cell

     iteration # 37     ecut=    60.00 Ry     beta= 0.70
     Davidson diagonalization with overlap
     ethr =  1.21E-11,  avg # of iterations =  2.0

     total cpu time spent up to now is      160.6 secs

     total energy              =    -339.55861489 Ry
     estimated scf accuracy    <       0.00000002 Ry

     total magnetization       =     0.59 Bohr mag/cell
     absolute magnetization    =     0.65 Bohr mag/cell

     iteration # 38     ecut=    60.00 Ry     beta= 0.70
     Davidson diagonalization with overlap
     ethr =  1.21E-11,  avg # of iterations =  1.7

     Magnetic moment per site  (integrated on atomic sphere of radius R)
     atom   1 (R=0.378)  charge= 16.1456  magn=  0.6189

     total cpu time spent up to now is      161.7 secs

     End of self-consistent calculation

     Number of k-points >= 100: set verbosity='high' to print the bands.

     the Fermi energy is    16.5499 ev

!    total energy              =    -339.55861489 Ry
     estimated scf accuracy    <          5.7E-10 Ry
     smearing contrib. (-TS)   =       0.00011683 Ry
     internal energy E=F+TS    =    -339.55873172 Ry

     The total energy is F=E-TS. E is the sum of the following terms:
     one-electron contribution =    -200.76781945 Ry
     hartree contribution      =     110.98149152 Ry
     xc contribution           =     -34.35389566 Ry
     ewald contribution        =    -215.41850813 Ry

     total magnetization       =     0.59 Bohr mag/cell
     absolute magnetization    =     0.65 Bohr mag/cell

     convergence has been achieved in  38 iterations

     Forces acting on atoms (cartesian axes, Ry/au):

     atom    1 type  1   force =     0.00000000    0.00000000    0.00000000

     Total force =     0.000000     Total SCF correction =     0.000021


     Computing stress (Cartesian axis) and pressure

          total   stress  (Ry/bohr**3)                   (kbar)     P=       64.98
   0.00148534   0.00031436   0.00058704          218.50       46.24       86.36
   0.00031436   0.00079419  -0.00001654           46.24      116.83       -2.43
   0.00058704  -0.00001654  -0.00095433           86.36       -2.43     -140.39

     Energy error            =      1.5E-02 Ry
     Gradient error          =      0.0E+00 Ry/Bohr
     Cell gradient error     =      2.2E+02 kbar

     number of scf cycles    =   4
     number of bfgs steps    =   3

     enthalpy           old  =    -339.5431598465 Ry
     enthalpy           new  =    -339.5586148921 Ry

     CASE: enthalpy          _new < enthalpy          _old

     new trust radius        =       0.1050100573 bohr
     new conv_thr            =       0.0000000010 Ry

     new unit-cell volume =     74.17060 a.u.^3 (    10.99095 Ang^3 )
     density =      8.86754 g/cm^3

CELL_PARAMETERS (bohr)
   4.247669385   0.081957558   0.067081727
   0.367200583   4.249134477   0.012343336
   1.414471714  -0.023224686   4.138544336

ATOMIC_POSITIONS (crystal)
Ni            0.0000000000        0.0000000000        0.0000000000



     Writing config-only to output data dir ./out/pwscf.save/
     NEW-OLD atomic charge density approx. for the potential
     extrapolated charge   16.95432, renormalised to   18.00000
     Generating pointlists ...

     total cpu time spent up to now is      162.2 secs

     Self-consistent Calculation

     iteration #  1     ecut=    60.00 Ry     beta= 0.70
     Davidson diagonalization with overlap
     ethr =  1.00E-06,  avg # of iterations =  9.2

     total cpu time spent up to now is      165.6 secs

     total energy              =    -335.82432218 Ry
     estimated scf accuracy    <       4.39195058 Ry

     total magnetization       =    -0.00 Bohr mag/cell
     absolute magnetization    =     0.07 Bohr mag/cell

     iteration #  2     ecut=    60.00 Ry     beta= 0.70
     Davidson diagonalization with overlap
     ethr =  1.00E-02,  avg # of iterations =  3.0

     total cpu time spent up to now is      167.0 secs

     total energy              =    -339.16845162 Ry
     estimated scf accuracy    <      14.60708969 Ry

     total magnetization       =     0.09 Bohr mag/cell
     absolute magnetization    =     0.11 Bohr mag/cell

     iteration #  3     ecut=    60.00 Ry     beta= 0.70
     Davidson diagonalization with overlap
     ethr =  1.00E-02,  avg # of iterations =  2.1

     total cpu time spent up to now is      168.2 secs

     total energy              =    -339.75124495 Ry
     estimated scf accuracy    <       2.50115396 Ry

     total magnetization       =     0.18 Bohr mag/cell
     absolute magnetization    =     0.32 Bohr mag/cell

     iteration #  4     ecut=    60.00 Ry     beta= 0.70
     Davidson diagonalization with overlap
     ethr =  1.00E-02,  avg # of iterations =  1.1

     total cpu time spent up to now is      169.2 secs

     total energy              =    -339.57566111 Ry
     estimated scf accuracy    <       3.28091077 Ry

     total magnetization       =     0.25 Bohr mag/cell
     absolute magnetization    =     2.18 Bohr mag/cell

     iteration #  5     ecut=    60.00 Ry     beta= 0.70
     Davidson diagonalization with overlap
     ethr =  1.00E-02,  avg # of iterations =  1.0

     total cpu time spent up to now is      170.1 secs

     total energy              =    -339.58973783 Ry
     estimated scf accuracy    <       0.42954401 Ry

     total magnetization       =     0.27 Bohr mag/cell
     absolute magnetization    =     0.32 Bohr mag/cell

     iteration #  6     ecut=    60.00 Ry     beta= 0.70
     Davidson diagonalization with overlap
     ethr =  2.39E-03,  avg # of iterations =  1.0

     total cpu time spent up to now is      171.0 secs

     total energy              =    -339.60099070 Ry
     estimated scf accuracy    <       0.33377025 Ry

     total magnetization       =     0.31 Bohr mag/cell
     absolute magnetization    =     0.63 Bohr mag/cell

     iteration #  7     ecut=    60.00 Ry     beta= 0.70
     Davidson diagonalization with overlap
     ethr =  1.85E-03,  avg # of iterations =  1.0

     total cpu time spent up to now is      171.9 secs

     total energy              =    -339.57926093 Ry
     estimated scf accuracy    <       0.44344423 Ry

     total magnetization       =     0.31 Bohr mag/cell
     absolute magnetization    =     0.83 Bohr mag/cell

[...]
     absolute magnetization    =     0.02 Bohr mag/cell

     iteration # 12     ecut=    60.00 Ry     beta= 0.70
     Davidson diagonalization with overlap
     ethr =  3.81E-08,  avg # of iterations =  2.0

     total cpu time spent up to now is     1130.4 secs

     total energy              =    -339.58809819 Ry
     estimated scf accuracy    <       0.00000220 Ry

     total magnetization       =    -0.01 Bohr mag/cell
     absolute magnetization    =     0.01 Bohr mag/cell

     iteration # 13     ecut=    60.00 Ry     beta= 0.70
     Davidson diagonalization with overlap
     ethr =  1.22E-08,  avg # of iterations =  1.0

     total cpu time spent up to now is     1131.1 secs

     total energy              =    -339.58809841 Ry
     estimated scf accuracy    <       0.00000376 Ry

     total magnetization       =    -0.00 Bohr mag/cell
     absolute magnetization    =     0.00 Bohr mag/cell

     iteration # 14     ecut=    60.00 Ry     beta= 0.70
     Davidson diagonalization with overlap
     ethr =  1.22E-08,  avg # of iterations =  1.8

     total cpu time spent up to now is     1132.0 secs

     total energy              =    -339.58809834 Ry
     estimated scf accuracy    <       0.00000531 Ry

     total magnetization       =    -0.00 Bohr mag/cell
     absolute magnetization    =     0.00 Bohr mag/cell

     iteration # 15     ecut=    60.00 Ry     beta= 0.70
     Davidson diagonalization with overlap
     ethr =  1.22E-08,  avg # of iterations =  2.0

     total cpu time spent up to now is     1132.9 secs

     total energy              =    -339.58809845 Ry
     estimated scf accuracy    <       0.00000235 Ry

     total magnetization       =    -0.00 Bohr mag/cell
     absolute magnetization    =     0.00 Bohr mag/cell

     iteration # 16     ecut=    60.00 Ry     beta= 0.70
     Davidson diagonalization with overlap
     ethr =  1.22E-08,  avg # of iterations =  1.0

     total cpu time spent up to now is     1133.6 secs

     total energy              =    -339.58809849 Ry
     estimated scf accuracy    <       0.00000079 Ry

     total magnetization       =    -0.00 Bohr mag/cell
     absolute magnetization    =     0.00 Bohr mag/cell

     iteration # 17     ecut=    60.00 Ry     beta= 0.70
     Davidson diagonalization with overlap
     ethr =  4.37E-09,  avg # of iterations =  1.0

     total cpu time spent up to now is     1134.3 secs

     total energy              =    -339.58809850 Ry
     estimated scf accuracy    <       0.00000057 Ry

     total magnetization       =    -0.00 Bohr mag/cell
     absolute magnetization    =     0.00 Bohr mag/cell

     iteration # 18     ecut=    60.00 Ry     beta= 0.70
     Davidson diagonalization with overlap
     ethr =  3.18E-09,  avg # of iterations =  1.0

     total cpu time spent up to now is     1135.1 secs

     total energy              =    -339.58809845 Ry
     estimated scf accuracy    <       0.00000201 Ry

     total magnetization       =    -0.00 Bohr mag/cell
     absolute magnetization    =     0.00 Bohr mag/cell

     iteration # 19     ecut=    60.00 Ry     beta= 0.70
     Davidson diagonalization with overlap
     ethr =  3.18E-09,  avg # of iterations =  1.4

     total cpu time spent up to now is     1135.9 secs

     total energy              =    -339.58809848 Ry
     estimated scf accuracy    <       0.00000010 Ry

     total magnetization       =     0.00 Bohr mag/cell
     absolute magnetization    =     0.00 Bohr mag/cell

     iteration # 20     ecut=    60.00 Ry     beta= 0.70
     Davidson diagonalization with overlap
     ethr =  5.65E-10,  avg # of iterations =  1.0

     total cpu time spent up to now is     1136.6 secs

     total energy              =    -339.58809849 Ry
     estimated scf accuracy    <       0.00000009 Ry

     total magnetization       =     0.00 Bohr mag/cell
     absolute magnetization    =     0.00 Bohr mag/cell

     iteration # 21     ecut=    60.00 Ry     beta= 0.70
     Davidson diagonalization with overlap
     ethr =  5.05E-10,  avg # of iterations =  2.0

     total cpu time spent up to now is     1137.5 secs

     total energy              =    -339.58809841 Ry
     estimated scf accuracy    <       0.00000448 Ry

     total magnetization       =     0.00 Bohr mag/cell
     absolute magnetization    =     0.00 Bohr mag/cell

     iteration # 22     ecut=    60.00 Ry     beta= 0.70
     Davidson diagonalization with overlap
     ethr =  5.05E-10,  avg # of iterations =  2.0

     total cpu time spent up to now is     1138.4 secs

     total energy              =    -339.58809848 Ry
     estimated scf accuracy    <       0.00000011 Ry

     total magnetization       =    -0.00 Bohr mag/cell
     absolute magnetization    =     0.00 Bohr mag/cell

     iteration # 23     ecut=    60.00 Ry     beta= 0.70
     Davidson diagonalization with overlap
     ethr =  5.05E-10,  avg # of iterations =  1.0

     total cpu time spent up to now is     1139.1 secs

     total energy              =    -339.58809848 Ry
     estimated scf accuracy    <       0.00000015 Ry

     total magnetization       =     0.00 Bohr mag/cell
     absolute magnetization    =     0.00 Bohr mag/cell

     iteration # 24     ecut=    60.00 Ry     beta= 0.70
     Davidson diagonalization with overlap
     ethr =  5.05E-10,  avg # of iterations =  1.0

     total cpu time spent up to now is     1139.9 secs

     total energy              =    -339.58809848 Ry
     estimated scf accuracy    <       0.00000012 Ry

     total magnetization       =     0.00 Bohr mag/cell
     absolute magnetization    =     0.00 Bohr mag/cell

     iteration # 25     ecut=    60.00 Ry     beta= 0.70
     Davidson diagonalization with overlap
     ethr =  5.05E-10,  avg # of iterations =  1.0

     total cpu time spent up to now is     1140.6 secs

     total energy              =    -339.58809848 Ry
     estimated scf accuracy    <       0.00000006 Ry

     total magnetization       =    -0.00 Bohr mag/cell
     absolute magnetization    =     0.00 Bohr mag/cell

     iteration # 26     ecut=    60.00 Ry     beta= 0.70
     Davidson diagonalization with overlap
     ethr =  3.45E-10,  avg # of iterations =  1.0

     total cpu time spent up to now is     1141.3 secs

     total energy              =    -339.58809848 Ry
     estimated scf accuracy    <       0.00000004 Ry

     total magnetization       =    -0.00 Bohr mag/cell
     absolute magnetization    =     0.00 Bohr mag/cell

     iteration # 27     ecut=    60.00 Ry     beta= 0.70
     Davidson diagonalization with overlap
     ethr =  2.04E-10,  avg # of iterations =  1.0

     total cpu time spent up to now is     1142.1 secs

     total energy              =    -339.58809848 Ry
     estimated scf accuracy    <       0.00000002 Ry

     total magnetization       =    -0.00 Bohr mag/cell
     absolute magnetization    =     0.00 Bohr mag/cell

     iteration # 28     ecut=    60.00 Ry     beta= 0.70
     Davidson diagonalization with overlap
     ethr =  1.18E-10,  avg # of iterations =  1.5

     total cpu time spent up to now is     1142.9 secs

     total energy              =    -339.58809848 Ry
     estimated scf accuracy    <       0.00000008 Ry

     total magnetization       =    -0.00 Bohr mag/cell
     absolute magnetization    =     0.00 Bohr mag/cell

     iteration # 29     ecut=    60.00 Ry     beta= 0.70
     Davidson diagonalization with overlap
     ethr =  1.18E-10,  avg # of iterations =  1.2

     total cpu time spent up to now is     1143.7 secs

     total energy              =    -339.58809848 Ry
     estimated scf accuracy    <       0.00000005 Ry

     total magnetization       =    -0.00 Bohr mag/cell
     absolute magnetization    =     0.00 Bohr mag/cell

     iteration # 30     ecut=    60.00 Ry     beta= 0.70
     Davidson diagonalization with overlap
     ethr =  1.18E-10,  avg # of iterations =  1.0

     total cpu time spent up to now is     1144.4 secs

     total energy              =    -339.58809848 Ry
     estimated scf accuracy    <       0.00000003 Ry

     total magnetization       =    -0.00 Bohr mag/cell
     absolute magnetization    =     0.00 Bohr mag/cell

     iteration # 31     ecut=    60.00 Ry     beta= 0.70
     Davidson diagonalization with overlap
     ethr =  1.18E-10,  avg # of iterations =  2.0

     total cpu time spent up to now is     1145.3 secs

     total energy              =    -339.58809848 Ry
     estimated scf accuracy    <       0.00000036 Ry

     total magnetization       =    -0.00 Bohr mag/cell
     absolute magnetization    =     0.00 Bohr mag/cell

     iteration # 32     ecut=    60.00 Ry     beta= 0.70
     Davidson diagonalization with overlap
     ethr =  1.18E-10,  avg # of iterations =  2.0

     total cpu time spent up to now is     1146.2 secs

     total energy              =    -339.58809848 Ry
     estimated scf accuracy    <       0.00000007 Ry

     total magnetization       =    -0.00 Bohr mag/cell
     absolute magnetization    =     0.00 Bohr mag/cell

     iteration # 33     ecut=    60.00 Ry     beta= 0.70
     Davidson diagonalization with overlap
     ethr =  1.18E-10,  avg # of iterations =  1.6

     total cpu time spent up to now is     1147.1 secs

     total energy              =    -339.58809848 Ry
     estimated scf accuracy    <          2.5E-09 Ry

     total magnetization       =     0.00 Bohr mag/cell
     absolute magnetization    =     0.00 Bohr mag/cell

     iteration # 34     ecut=    60.00 Ry     beta= 0.70
     Davidson diagonalization with overlap
     ethr =  1.38E-11,  avg # of iterations =  1.0

     total cpu time spent up to now is     1147.8 secs

     total energy              =    -339.58809848 Ry
     estimated scf accuracy    <          5.1E-09 Ry

     total magnetization       =     0.00 Bohr mag/cell
     absolute magnetization    =     0.00 Bohr mag/cell

     iteration # 35     ecut=    60.00 Ry     beta= 0.70
     Davidson diagonalization with overlap
     ethr =  1.38E-11,  avg # of iterations =  1.0

     total cpu time spent up to now is     1148.5 secs

     total energy              =    -339.58809848 Ry
     estimated scf accuracy    <          2.2E-09 Ry

     total magnetization       =     0.00 Bohr mag/cell
     absolute magnetization    =     0.00 Bohr mag/cell

     iteration # 36     ecut=    60.00 Ry     beta= 0.70
     Davidson diagonalization with overlap
     ethr =  1.23E-11,  avg # of iterations =  1.0

     total cpu time spent up to now is     1149.3 secs

     total energy              =    -339.58809848 Ry
     estimated scf accuracy    <          1.9E-09 Ry

     total magnetization       =     0.00 Bohr mag/cell
     absolute magnetization    =     0.00 Bohr mag/cell

     iteration # 37     ecut=    60.00 Ry     beta= 0.70
     Davidson diagonalization with overlap
     ethr =  1.05E-11,  avg # of iterations =  1.0

     total cpu time spent up to now is     1150.0 secs

     total energy              =    -339.58809848 Ry
     estimated scf accuracy    <          2.0E-09 Ry

     total magnetization       =     0.00 Bohr mag/cell
     absolute magnetization    =     0.00 Bohr mag/cell

     iteration # 38     ecut=    60.00 Ry     beta= 0.70
     Davidson diagonalization with overlap
     ethr =  1.05E-11,  avg # of iterations =  1.0

     total cpu time spent up to now is     1150.7 secs

     total energy              =    -339.58809848 Ry
     estimated scf accuracy    <          1.6E-09 Ry

     total magnetization       =     0.00 Bohr mag/cell
     absolute magnetization    =     0.00 Bohr mag/cell

     iteration # 39     ecut=    60.00 Ry     beta= 0.70
     Davidson diagonalization with overlap
     ethr =  8.63E-12,  avg # of iterations =  1.0

     total cpu time spent up to now is     1151.5 secs

     total energy              =    -339.58809848 Ry
     estimated scf accuracy    <          3.2E-09 Ry

     total magnetization       =     0.00 Bohr mag/cell
     absolute magnetization    =     0.00 Bohr mag/cell

     iteration # 40     ecut=    60.00 Ry     beta= 0.70
     Davidson diagonalization with overlap
     ethr =  8.63E-12,  avg # of iterations =  1.0

     total cpu time spent up to now is     1152.2 secs

     total energy              =    -339.58809848 Ry
     estimated scf accuracy    <          3.2E-09 Ry

     total magnetization       =     0.00 Bohr mag/cell
     absolute magnetization    =     0.00 Bohr mag/cell

     iteration # 41     ecut=    60.00 Ry     beta= 0.70
     Davidson diagonalization with overlap
     ethr =  8.63E-12,  avg # of iterations =  1.0

     total cpu time spent up to now is     1152.9 secs

     total energy              =    -339.58809848 Ry
     estimated scf accuracy    <          2.0E-09 Ry

     total magnetization       =     0.00 Bohr mag/cell
     absolute magnetization    =     0.00 Bohr mag/cell

     iteration # 42     ecut=    60.00 Ry     beta= 0.70
     Davidson diagonalization with overlap
     ethr =  8.63E-12,  avg # of iterations =  1.0

     total cpu time spent up to now is     1153.6 secs

     total energy              =    -339.58809848 Ry
     estimated scf accuracy    <          1.2E-09 Ry

     total magnetization       =     0.00 Bohr mag/cell
     absolute magnetization    =     0.00 Bohr mag/cell

     iteration # 43     ecut=    60.00 Ry     beta= 0.70
     Davidson diagonalization with overlap
     ethr =  6.51E-12,  avg # of iterations =  1.5

     total cpu time spent up to now is     1154.5 secs

     total energy              =    -339.58809848 Ry
     estimated scf accuracy    <       0.00000002 Ry

     total magnetization       =     0.00 Bohr mag/cell
     absolute magnetization    =     0.00 Bohr mag/cell

     iteration # 44     ecut=    60.00 Ry     beta= 0.70
     Davidson diagonalization with overlap
     ethr =  6.51E-12,  avg # of iterations =  1.5

     total cpu time spent up to now is     1155.4 secs

     total energy              =    -339.58809848 Ry
     estimated scf accuracy    <          6.9E-09 Ry

     total magnetization       =     0.00 Bohr mag/cell
     absolute magnetization    =     0.00 Bohr mag/cell

     iteration # 45     ecut=    60.00 Ry     beta= 0.70
     Davidson diagonalization with overlap
     ethr =  6.51E-12,  avg # of iterations =  1.6

     total cpu time spent up to now is     1156.3 secs

     total energy              =    -339.58809848 Ry
     estimated scf accuracy    <          1.1E-09 Ry

     total magnetization       =     0.00 Bohr mag/cell
     absolute magnetization    =     0.00 Bohr mag/cell

     iteration # 46     ecut=    60.00 Ry     beta= 0.70
     Davidson diagonalization with overlap
     ethr =  5.97E-12,  avg # of iterations =  1.0

     Magnetic moment per site  (integrated on atomic sphere of radius R)
     atom   1 (R=0.378)  charge= 16.1293  magn=  0.0000

     total cpu time spent up to now is     1157.0 secs

     End of self-consistent calculation

     Number of k-points >= 100: set verbosity='high' to print the bands.

     the Fermi energy is    18.5314 ev

!    total energy              =    -339.58809848 Ry
     estimated scf accuracy    <          9.7E-10 Ry
     smearing contrib. (-TS)   =       0.00010494 Ry
     internal energy E=F+TS    =    -339.58820342 Ry

     The total energy is F=E-TS. E is the sum of the following terms:
     one-electron contribution =    -182.85970610 Ry
     hartree contribution      =     103.35542663 Ry
     xc contribution           =     -34.34848709 Ry
     ewald contribution        =    -225.73543686 Ry

     total magnetization       =     0.00 Bohr mag/cell
     absolute magnetization    =     0.00 Bohr mag/cell

     convergence has been achieved in  46 iterations

     Forces acting on atoms (cartesian axes, Ry/au):

     atom    1 type  1   force =     0.00000000    0.00000000    0.00000000

     Total force =     0.000000     Total SCF correction =     0.000027


     Computing stress (Cartesian axis) and pressure

          total   stress  (Ry/bohr**3)                   (kbar)     P=       48.28
   0.00058128   0.00048019   0.00002354           85.51       70.64        3.46
   0.00048019   0.00041846  -0.00014883           70.64       61.56      -21.89
   0.00002354  -0.00014883  -0.00001514            3.46      -21.89       -2.23


     Writing all to output data dir ./out/pwscf.save/

     init_run     :      0.72s CPU      0.90s WALL (       2 calls)
     electrons    :    960.73s CPU   1138.73s WALL (      33 calls)
     update_pot   :      2.78s CPU      2.91s WALL (      31 calls)
     forces       :      3.49s CPU      4.15s WALL (      33 calls)
     stress       :      8.60s CPU      9.09s WALL (      33 calls)

     Called by init_run:
     wfcinit      :      0.49s CPU      0.61s WALL (       2 calls)
     potinit      :      0.04s CPU      0.05s WALL (       2 calls)
     hinit0       :      0.18s CPU      0.22s WALL (       2 calls)

     Called by electrons:
     c_bands      :    812.91s CPU    965.13s WALL (    1066 calls)
     sum_band     :    134.35s CPU    158.80s WALL (    1066 calls)
     v_of_rho     :      8.33s CPU      8.68s WALL (    1098 calls)
     newd         :      3.91s CPU      4.12s WALL (    1098 calls)
     mix_rho      :      0.78s CPU      1.30s WALL (    1066 calls)

     Called by c_bands:
     init_us_2    :     11.23s CPU     13.46s WALL (  556600 calls)
     init_us_2:cp :     10.56s CPU     12.78s WALL (  556600 calls)
     cegterg      :    779.86s CPU    918.90s WALL (  269698 calls)

     Called by *egterg:
     cdiaghg      :     97.09s CPU    112.57s WALL (  721766 calls)
     h_psi        :    531.39s CPU    629.26s WALL (  730368 calls)
     s_psi        :     24.74s CPU     28.76s WALL (  730368 calls)
     g_psi        :      1.44s CPU      1.70s WALL (  460164 calls)

     Called by h_psi:
     h_psi:calbec :     29.62s CPU     34.82s WALL (  730368 calls)
     vloc_psi     :    479.35s CPU    568.28s WALL (  730368 calls)
     add_vuspsi   :     19.24s CPU     22.49s WALL (  730368 calls)

     General routines
     calbec       :     42.86s CPU     50.86s WALL ( 1041811 calls)
     fft          :      2.97s CPU      3.39s WALL (   28737 calls)
     ffts         :      0.18s CPU      0.22s WALL (    4328 calls)
     fftw         :    548.51s CPU    650.54s WALL (19504622 calls)
     interpolate  :      0.31s CPU      0.35s WALL (    2196 calls)

     Parallel routines

     PWSCF        :  16m17.95s CPU  19m17.97s WALL


   This run was terminated on:  15:15:51  18Jun2023            

=------------------------------------------------------------------------------=
   JOB DONE.
=------------------------------------------------------------------------------=
Note: The following floating-point exceptions are signalling: IEEE_DENORMAL
Note: The following floating-point exceptions are signalling: IEEE_DENORMAL
Note: The following floating-point exceptions are signalling: IEEE_DENORMAL
Note: The following floating-point exceptions are signalling: IEEE_DENORMAL
Note: The following floating-point exceptions are signalling: IEEE_DENORMAL
Note: The following floating-point exceptions are signalling: IEEE_DENORMAL
Note: The following floating-point exceptions are signalling: IEEE_DENORMAL
Note: The following floating-point exceptions are signalling: IEEE_DENORMAL
Note: The following floating-point exceptions are signalling: IEEE_DENORMAL
Note: The following floating-point exceptions are signalling: IEEE_DENORMAL
Note: The following floating-point exceptions are signalling: IEEE_DENORMAL
Note: The following floating-point exceptions are signalling: IEEE_DENORMAL
Note: The following floating-point exceptions are signalling: IEEE_DENORMAL
Note: The following floating-point exceptions are signalling: IEEE_DENORMAL
Note: The following floating-point exceptions are signalling: IEEE_DENORMAL
Note: The following floating-point exceptions are signalling: IEEE_DENORMAL
